 Gaussian 16, Revision A.03,
 Gaussian 16:  ES64L-G16RevA.03 25-Dec-2016

 ------------------
 #p CCSD(T)/cc-pVTZ
 ------------------

 ------------
 H2O_H2O_4890
 ------------
 Symbolic Z-matrix:
 Charge =  0 Multiplicity = 1

                         Standard orientation:
 ---------------------------------------------------------------------
 Center     Atomic      Atomic             Coordinates (Angstroms)
 Number     Number       Type             X           Y           Z
 ---------------------------------------------------------------------
      1          8           0        0.047518   -3.368793    0.000000
      2          1           0       -0.752740   -3.938962    0.000000
      3          1           0        0.846401   -3.940888    0.000000
      4          8           0        0.047518    3.419445    0.000000
      5          1           0        0.018040    4.401604    0.000000
      6          1           0       -0.871996    3.073036    0.000000
 ---------------------------------------------------------------------

 SCF Done:  E(RHF) =  -152.107263596     A.U. after   10 cycles
 E2 =    -0.5258875403D+00 EUMP2 =    -0.15263315113603D+03
 CCSD(T)
 CCSD(T)= -0.15266037459D+03

 The electronic state is 1-A'.
 Alpha  occ. eigenvalues --  -20.55485 -20.55232  -1.32783  -1.32529  -0.70189
 Alpha  occ. eigenvalues --   -0.69931  -0.56223  -0.55969  -0.49893  -0.49640
 Alpha virt. eigenvalues --    0.14180   0.14433   0.20247   0.20513   0.54375
 Alpha virt. eigenvalues --    0.54641   0.57280   0.57533   0.67977   0.68235
 Alpha virt. eigenvalues --    0.78986   0.79236   0.80421   0.80691   0.82345

 Mulliken charges:
               1
     1  O   -0.508024
     2  H    0.253149
     3  H    0.254876
     4  O   -0.507875
     5  H    0.252466
     6  H    0.255409
 Sum of Mulliken charges =  -0.00000

 Dipole moment (field-independent basis, Debye):
    X=             -1.6346    Y=             -0.8827    Z=              0.0000  Tot=              1.8577
 Quadrupole moment (field-independent basis, Debye-Ang):
   XX=             -9.2243   YY=             10.4496   ZZ=            -14.7116
   XY=             -4.8092   XZ=              0.0000   YZ=              0.0000

 Normal termination of Gaussian 16 at Sat Aug 27 09:55:03 2022.
