 Gaussian 16, Revision A.03,
 Gaussian 16:  ES64L-G16RevA.03 25-Dec-2016

 ------------------
 #p CCSD(T)/cc-pVTZ
 ------------------

 ------------
 H2O_H2O_4771
 ------------
 Symbolic Z-matrix:
 Charge =  0 Multiplicity = 1

                         Standard orientation:
 ---------------------------------------------------------------------
 Center     Atomic      Atomic             Coordinates (Angstroms)
 Number     Number       Type             X           Y           Z
 ---------------------------------------------------------------------
      1          8           0        0.056082   -3.279978    0.000000
      2          1           0       -0.744316   -3.849950    0.000000
      3          1           0        0.854824   -3.852269    0.000000
      4          8           0        0.056082    3.371758    0.000000
      5          1           0       -0.346788    4.267973    0.000000
      6          1           0       -0.661039    2.700011    0.000000
 ---------------------------------------------------------------------

 SCF Done:  E(RHF) =  -152.107528832     A.U. after   10 cycles
 E2 =    -0.5258651705D+00 EUMP2 =    -0.15263339400296D+03
 CCSD(T)
 CCSD(T)= -0.15266061175D+03

 The electronic state is 1-A'.
 Alpha  occ. eigenvalues --  -20.55671 -20.55196  -1.32971  -1.32495  -0.70377
 Alpha  occ. eigenvalues --   -0.69895  -0.56423  -0.55945  -0.50083  -0.49609
 Alpha virt. eigenvalues --    0.14012   0.14492   0.20096   0.20600   0.54184
 Alpha virt. eigenvalues --    0.54676   0.57113   0.57588   0.67751   0.68251
 Alpha virt. eigenvalues --    0.78797   0.79264   0.80225   0.80727   0.82152

 Mulliken charges:
               1
     1  O   -0.509601
     2  H    0.253772
     3  H    0.255830
     4  O   -0.509339
     5  H    0.252592
     6  H    0.256747
 Sum of Mulliken charges =  -0.00000

 Dipole moment (field-independent basis, Debye):
    X=             -1.9290    Y=             -1.6011    Z=              0.0000  Tot=              2.5069
 Quadrupole moment (field-independent basis, Debye-Ang):
   XX=             -9.7846   YY=              5.7344   ZZ=            -14.7123
   XY=             -6.2724   XZ=              0.0000   YZ=              0.0000

 Normal termination of Gaussian 16 at Sat Aug 27 09:14:52 2022.
