 Gaussian 16, Revision A.03,
 Gaussian 16:  ES64L-G16RevA.03 25-Dec-2016

 ------------------
 #p CCSD(T)/cc-pVTZ
 ------------------

 ----------
 H2O_H2O_79
 ----------
 Symbolic Z-matrix:
 Charge =  0 Multiplicity = 1

                         Standard orientation:
 ---------------------------------------------------------------------
 Center     Atomic      Atomic             Coordinates (Angstroms)
 Number     Number       Type             X           Y           Z
 ---------------------------------------------------------------------
      1          8           0        0.014785   -0.841396    0.000000
      2          1           0       -0.785647   -1.411321    0.000000
      3          1           0        0.813493   -1.413734    0.000000
      4          8           0        0.014785    0.845244    0.000000
      5          1           0        0.640436    1.602917    0.000000
      6          1           0       -0.904841    1.191359    0.000000
 ---------------------------------------------------------------------

 SCF Done:  E(RHF) =  -151.952302892     A.U. after   11 cycles
 E2 =    -0.5477021549D+00 EUMP2 =    -0.15250000504707D+03
 CCSD(T)
 CCSD(T)= -0.15252502448D+03

 The electronic state is 1-A'.
 Alpha  occ. eigenvalues --  -20.51376 -20.51266  -1.35634  -1.27077  -0.70635
 Alpha  occ. eigenvalues --   -0.67666  -0.64551  -0.52024  -0.43338  -0.34957
 Alpha virt. eigenvalues --    0.14471   0.19441   0.19926   0.23143   0.51133
 Alpha virt. eigenvalues --    0.58286   0.59130   0.66355   0.68753   0.79125
 Alpha virt. eigenvalues --    0.80385   0.83845   0.83935   0.85908   0.88111

 Mulliken charges:
               1
     1  O   -0.365060
     2  H    0.175180
     3  H    0.190171
     4  O   -0.353840
     5  H    0.146747
     6  H    0.206802
 Sum of Mulliken charges =  -0.00000

 Dipole moment (field-independent basis, Debye):
    X=             -0.4211    Y=             -0.1034    Z=              0.0000  Tot=              0.4336
 Quadrupole moment (field-independent basis, Debye-Ang):
   XX=             -8.5453   YY=             -8.4914   ZZ=            -14.7591
   XY=             -0.1981   XZ=              0.0000   YZ=              0.0000

 6005\MP4DQ=-152.5037805\MP4SDQ=-152.5079967\CCSD=-152.5067614\CCSD(T)=
 Normal termination of Gaussian 16 at Fri Aug 26 12:33:38 2022.
