 Gaussian 16, Revision A.03,
 Gaussian 16:  ES64L-G16RevA.03 25-Dec-2016

 ------------------
 #p CCSD(T)/cc-pVTZ
 ------------------

 ------------
 H2O_H2O_2045
 ------------
 Symbolic Z-matrix:
 Charge =  0 Multiplicity = 1

                         Standard orientation:
 ---------------------------------------------------------------------
 Center     Atomic      Atomic             Coordinates (Angstroms)
 Number     Number       Type             X           Y           Z
 ---------------------------------------------------------------------
      1          8           0        0.055274   -1.834738    0.000000
      2          1           0       -0.745739   -2.403845    0.000000
      3          1           0        0.853397   -2.407891    0.000000
      4          8           0        0.055274    1.919121    0.000000
      5          1           0       -0.287124    2.840136    0.000000
      6          1           0       -0.704919    1.296535    0.000000
 ---------------------------------------------------------------------

 SCF Done:  E(RHF) =  -152.107991392     A.U. after   10 cycles
 E2 =    -0.5263308037D+00 EUMP2 =    -0.15263432219555D+03
 CCSD(T)
 CCSD(T)= -0.15266148717D+03

 The electronic state is 1-A'.
 Alpha  occ. eigenvalues --  -20.55812 -20.54197  -1.33084  -1.31485  -0.70494
 Alpha  occ. eigenvalues --   -0.68853  -0.56522  -0.54931  -0.50200  -0.48610
 Alpha virt. eigenvalues --    0.13186   0.16228   0.19919   0.22891   0.54006
 Alpha virt. eigenvalues --    0.54588   0.57035   0.58549   0.65486   0.74973
 Alpha virt. eigenvalues --    0.78355   0.78962   0.79924   0.80478   0.84618

 Mulliken charges:
               1
     1  O   -0.500979
     2  H    0.247584
     3  H    0.257008
     4  O   -0.508609
     5  H    0.243916
     6  H    0.261080
 Sum of Mulliken charges =  -0.00000

 Dipole moment (field-independent basis, Debye):
    X=             -1.8574    Y=             -1.5642    Z=              0.0000  Tot=              2.4284
 Quadrupole moment (field-independent basis, Debye-Ang):
   XX=             -9.7250   YY=             -0.8050   ZZ=            -14.7167
   XY=             -3.3399   XZ=              0.0000   YZ=              0.0000

 Normal termination of Gaussian 16 at Sat Aug 27 08:16:44 2022.
