 Gaussian 16, Revision A.03,
 Gaussian 16:  ES64L-G16RevA.03 25-Dec-2016

 ------------------
 #p CCSD(T)/cc-pVTZ
 ------------------

 ------------
 H2O_H2O_1542
 ------------
 Symbolic Z-matrix:
 Charge =  0 Multiplicity = 1

                         Standard orientation:
 ---------------------------------------------------------------------
 Center     Atomic      Atomic             Coordinates (Angstroms)
 Number     Number       Type             X           Y           Z
 ---------------------------------------------------------------------
      1          8           0        0.051310   -1.580201    0.000000
      2          1           0       -0.749820   -2.149144    0.000000
      3          1           0        0.849316   -2.153518    0.000000
      4          8           0        0.051310    1.643626    0.000000
      5          1           0       -0.104627    2.613775    0.000000
      6          1           0       -0.815831    1.181487    0.000000
 ---------------------------------------------------------------------

 SCF Done:  E(RHF) =  -152.106528418     A.U. after   10 cycles
 E2 =    -0.5269430859D+00 EUMP2 =    -0.15263347150385D+03
 CCSD(T)
 CCSD(T)= -0.15266064523D+03

 The electronic state is 1-A'.
 Alpha  occ. eigenvalues --  -20.55428 -20.53828  -1.32714  -1.31091  -0.70134
 Alpha  occ. eigenvalues --   -0.68482  -0.56135  -0.54400  -0.49829  -0.48205
 Alpha virt. eigenvalues --    0.13538   0.16692   0.20009   0.23093   0.54307
 Alpha virt. eigenvalues --    0.54986   0.57318   0.58370   0.65808   0.76192
 Alpha virt. eigenvalues --    0.77309   0.77463   0.78973   0.81668   0.84918

 Mulliken charges:
               1
     1  O   -0.488780
     2  H    0.240484
     3  H    0.253244
     4  O   -0.496107
     5  H    0.235644
     6  H    0.255515
 Sum of Mulliken charges =  -0.00000

 Dipole moment (field-independent basis, Debye):
    X=             -1.6914    Y=             -1.2062    Z=              0.0000  Tot=              2.0774
 Quadrupole moment (field-independent basis, Debye-Ang):
   XX=             -9.4790   YY=             -1.3288   ZZ=            -14.7176
   XY=             -2.3114   XZ=              0.0000   YZ=              0.0000

 Normal termination of Gaussian 16 at Sat Aug 27 05:22:28 2022.
