 Gaussian 16, Revision A.03,
 Gaussian 16:  ES64L-G16RevA.03 25-Dec-2016

 ------------------
 #p CCSD(T)/cc-pVTZ
 ------------------

 ------------
 H2O_H2O_4267
 ------------
 Symbolic Z-matrix:
 Charge =  0 Multiplicity = 1

                         Standard orientation:
 ---------------------------------------------------------------------
 Center     Atomic      Atomic             Coordinates (Angstroms)
 Number     Number       Type             X           Y           Z
 ---------------------------------------------------------------------
      1          8           0        0.051269   -3.029386    0.000000
      2          1           0       -0.749124   -3.599365    0.000000
      3          1           0        0.850017   -3.601669    0.000000
      4          8           0        0.051269    3.092944    0.000000
      5          1           0       -0.105925    4.062890    0.000000
      6          1           0       -0.815273    2.629682    0.000000
 ---------------------------------------------------------------------

 SCF Done:  E(RHF) =  -152.107299628     A.U. after   10 cycles
 E2 =    -0.5258928079D+00 EUMP2 =    -0.15263319243643D+03
 CCSD(T)
 CCSD(T)= -0.15266041457D+03

 The electronic state is 1-A'.
 Alpha  occ. eigenvalues --  -20.55521 -20.55127  -1.32819  -1.32423  -0.70225
 Alpha  occ. eigenvalues --   -0.69823  -0.56261  -0.55864  -0.49930  -0.49536
 Alpha virt. eigenvalues --    0.14129   0.14554   0.20212   0.20639   0.54336
 Alpha virt. eigenvalues --    0.54754   0.57246   0.57641   0.67900   0.68377
 Alpha virt. eigenvalues --    0.78950   0.79338   0.80383   0.80799   0.82322

 Mulliken charges:
               1
     1  O   -0.508257
     2  H    0.252882
     3  H    0.255376
     4  O   -0.507989
     5  H    0.251785
     6  H    0.256203
 Sum of Mulliken charges =  -0.00000

 Dipole moment (field-independent basis, Debye):
    X=             -1.7612    Y=             -1.1117    Z=              0.0000  Tot=              2.0827
 Quadrupole moment (field-independent basis, Debye-Ang):
   XX=             -9.4577   YY=              7.2099   ZZ=            -14.7118
   XY=             -4.8144   XZ=              0.0000   YZ=              0.0000

 Normal termination of Gaussian 16 at Sat Aug 27 06:20:55 2022.
