 Gaussian 16, Revision A.03,
 Gaussian 16:  ES64L-G16RevA.03 25-Dec-2016

 ------------------
 #p CCSD(T)/cc-pVTZ
 ------------------

 ------------
 H2O_H2O_1608
 ------------
 Symbolic Z-matrix:
 Charge =  0 Multiplicity = 1

                         Standard orientation:
 ---------------------------------------------------------------------
 Center     Atomic      Atomic             Coordinates (Angstroms)
 Number     Number       Type             X           Y           Z
 ---------------------------------------------------------------------
      1          8           0        0.028568   -1.646271    0.000000
      2          1           0       -0.771851   -2.216214    0.000000
      3          1           0        0.827289   -2.218591    0.000000
      4          8           0        0.028568    1.661490    0.000000
      5          1           0        0.436781    2.555284    0.000000
      6          1           0       -0.949305    1.757772    0.000000
 ---------------------------------------------------------------------

 SCF Done:  E(RHF) =  -152.103994843     A.U. after   10 cycles
 E2 =    -0.5268737110D+00 EUMP2 =    -0.15263086855373D+03
 CCSD(T)
 CCSD(T)= -0.15265811643D+03

 The electronic state is 1-A'.
 Alpha  occ. eigenvalues --  -20.54427 -20.54097  -1.31717  -1.31360  -0.69142
 Alpha  occ. eigenvalues --   -0.68774  -0.55478  -0.54096  -0.48841  -0.48424
 Alpha virt. eigenvalues --    0.14101   0.16367   0.20468   0.21786   0.52862
 Alpha virt. eigenvalues --    0.57024   0.58068   0.58610   0.63547   0.76906
 Alpha virt. eigenvalues --    0.78444   0.78691   0.79687   0.81713   0.85206

 Mulliken charges:
               1
     1  O   -0.483121
     2  H    0.238246
     3  H    0.245563
     4  O   -0.482578
     5  H    0.236605
     6  H    0.245284
 Sum of Mulliken charges =  -0.00000

 Dipole moment (field-independent basis, Debye):
    X=             -0.9469    Y=             -0.2848    Z=              0.0000  Tot=              0.9888
 Quadrupole moment (field-independent basis, Debye-Ang):
   XX=             -8.3707   YY=              0.5654   ZZ=            -14.7103
   XY=             -0.8958   XZ=              0.0000   YZ=              0.0000

 Normal termination of Gaussian 16 at Sat Aug 27 05:44:56 2022.
