 Gaussian 16, Revision A.03,
 Gaussian 16:  ES64L-G16RevA.03 25-Dec-2016

 ------------------
 #p CCSD(T)/cc-pVTZ
 ------------------

 ------------
 H2O_H2O_3106
 ------------
 Symbolic Z-matrix:
 Charge =  0 Multiplicity = 1

                         Standard orientation:
 ---------------------------------------------------------------------
 Center     Atomic      Atomic             Coordinates (Angstroms)
 Number     Number       Type             X           Y           Z
 ---------------------------------------------------------------------
      1          8           0        0.021860   -2.447587    0.000000
      2          1           0       -0.778149   -3.018106    0.000000
      3          1           0        0.820992   -3.019333    0.000000
      4          8           0        0.021860    2.456249    0.000000
      5          1           0        0.542644    3.289490    0.000000
      6          1           0       -0.935240    2.678657    0.000000
 ---------------------------------------------------------------------

 SCF Done:  E(RHF) =  -152.106218962     A.U. after   10 cycles
 E2 =    -0.5260250463D+00 EUMP2 =    -0.15263224400833D+03
 CCSD(T)
 CCSD(T)= -0.15265948668D+03

 The electronic state is 1-A'.
 Alpha  occ. eigenvalues --  -20.54970 -20.54887  -1.32263  -1.32179  -0.69673
 Alpha  occ. eigenvalues --   -0.69586  -0.55656  -0.55566  -0.49366  -0.49282
 Alpha virt. eigenvalues --    0.14371   0.14914   0.20555   0.20774   0.54784
 Alpha virt. eigenvalues --    0.55086   0.57697   0.57817   0.67249   0.70109
 Alpha virt. eigenvalues --    0.79501   0.79600   0.80928   0.81098   0.82674

 Mulliken charges:
               1
     1  O   -0.501876
     2  H    0.249932
     3  H    0.251951
     4  O   -0.501708
     5  H    0.249512
     6  H    0.252189
 Sum of Mulliken charges =  -0.00000

 Dipole moment (field-independent basis, Debye):
    X=             -0.7465    Y=             -0.1530    Z=              0.0000  Tot=              0.7620
 Quadrupole moment (field-independent basis, Debye-Ang):
   XX=             -8.1140   YY=              7.0929   ZZ=            -14.7100
   XY=             -1.2229   XZ=              0.0000   YZ=              0.0000

 Normal termination of Gaussian 16 at Fri Aug 26 19:28:59 2022.
