 Gaussian 16, Revision A.03,
 Gaussian 16:  ES64L-G16RevA.03 25-Dec-2016

 ------------------
 #p CCSD(T)/cc-pVTZ
 ------------------

 ------------
 H2O_H2O_2548
 ------------
 Symbolic Z-matrix:
 Charge =  0 Multiplicity = 1

                         Standard orientation:
 ---------------------------------------------------------------------
 Center     Atomic      Atomic             Coordinates (Angstroms)
 Number     Number       Type             X           Y           Z
 ---------------------------------------------------------------------
      1          8           0        0.057113   -2.088649    0.000000
      2          1           0       -0.743764   -2.657948    0.000000
      3          1           0        0.855374   -2.661611    0.000000
      4          8           0        0.057113    2.195143    0.000000
      5          1           0       -0.458588    3.031541    0.000000
      6          1           0       -0.566831    1.436065    0.000000
 ---------------------------------------------------------------------

 SCF Done:  E(RHF) =  -152.108448229     A.U. after   10 cycles
 E2 =    -0.5260503140D+00 EUMP2 =    -0.15263449854324D+03
 CCSD(T)
 CCSD(T)= -0.15266167009D+03

 The electronic state is 1-A'.
 Alpha  occ. eigenvalues --  -20.56003 -20.54482  -1.33283  -1.31784  -0.70689
 Alpha  occ. eigenvalues --   -0.69158  -0.56759  -0.55248  -0.50402  -0.48908
 Alpha virt. eigenvalues --    0.13027   0.15781   0.19852   0.22276   0.53931
 Alpha virt. eigenvalues --    0.54825   0.56900   0.58397   0.66534   0.72124
 Alpha virt. eigenvalues --    0.78472   0.79383   0.79955   0.80802   0.82464

 Mulliken charges:
               1
     1  O   -0.508420
     2  H    0.251888
     3  H    0.258702
     4  O   -0.512535
     5  H    0.248089
     6  H    0.262276
 Sum of Mulliken charges =  -0.00000

 Dipole moment (field-independent basis, Debye):
    X=             -1.9397    Y=             -1.9325    Z=              0.0000  Tot=              2.7381
 Quadrupole moment (field-independent basis, Debye-Ang):
   XX=             -9.8521   YY=             -0.9801   ZZ=            -14.7163
   XY=             -4.3527   XZ=              0.0000   YZ=              0.0000

 Normal termination of Gaussian 16 at Fri Aug 26 13:36:50 2022.
