 Gaussian 16, Revision A.03,
 Gaussian 16:  ES64L-G16RevA.03 25-Dec-2016

 ------------------
 #p CCSD(T)/cc-pVTZ
 ------------------

 ------------
 H2O_H2O_3000
 ------------
 Symbolic Z-matrix:
 Charge =  0 Multiplicity = 1

                         Standard orientation:
 ---------------------------------------------------------------------
 Center     Atomic      Atomic             Coordinates (Angstroms)
 Number     Number       Type             X           Y           Z
 ---------------------------------------------------------------------
      1          8           0        0.000000   -0.000000    2.399108
      2          1           0        0.000000    0.799571    2.970240
      3          1           0       -0.000000   -0.799571    2.970240
      4          8           0        0.000000   -0.000000   -2.399108
      5          1           0       -0.000000   -0.799571   -2.970240
      6          1           0        0.000000    0.799571   -2.970240
 ---------------------------------------------------------------------

 SCF Done:  E(RHF) =  -152.105991655     A.U. after   10 cycles
 E2 =    -0.5260509931D+00 EUMP2 =    -0.15263204264766D+03
 CCSD(T)
 CCSD(T)= -0.15265928964D+03

 The electronic state is 1-AG.
 Alpha  occ. eigenvalues --  -20.54862 -20.54862  -1.32154  -1.32153  -0.69566
 Alpha  occ. eigenvalues --   -0.69564  -0.55557  -0.55506  -0.49258  -0.49253
 Alpha virt. eigenvalues --    0.14420   0.14965   0.20614   0.20782   0.54847
 Alpha virt. eigenvalues --    0.55174   0.57765   0.57848   0.66914   0.70561
 Alpha virt. eigenvalues --    0.79580   0.79658   0.81031   0.81128   0.82572

 Mulliken charges:
               1
     1  O   -0.500517
     2  H    0.250259
     3  H    0.250259
     4  O   -0.500517
     5  H    0.250259
     6  H    0.250259
 Sum of Mulliken charges =  -0.00000

 Dipole moment (field-independent basis, Debye):
    X=             -0.0000    Y=              0.0000    Z=              0.0000  Tot=              0.0000
 Quadrupole moment (field-independent basis, Debye-Ang):
   XX=            -14.7097   YY=             -7.8175   ZZ=              7.1168
   XY=              0.0000   XZ=              0.0000   YZ=             -0.0000

 9\MP4DQ=-152.6411596\MP4SDQ=-152.644228\CCSD=-152.6436364\CCSD(T)=-152
 Normal termination of Gaussian 16 at Fri Aug 26 18:18:44 2022.
