 Gaussian 16, Revision A.03,
 Gaussian 16:  ES64L-G16RevA.03 25-Dec-2016

 ------------------
 #p CCSD(T)/cc-pVTZ
 ------------------

 -----------
 H2O_H2O_216
 -----------
 Symbolic Z-matrix:
 Charge =  0 Multiplicity = 1

                         Standard orientation:
 ---------------------------------------------------------------------
 Center     Atomic      Atomic             Coordinates (Angstroms)
 Number     Number       Type             X           Y           Z
 ---------------------------------------------------------------------
      1          8           0        0.049595   -0.879194    0.000000
      2          1           0       -0.752647   -1.446568    0.000000
      3          1           0        0.846477   -1.454071    0.000000
      4          8           0        0.049595    0.935842    0.000000
      5          1           0       -0.040644    1.914291    0.000000
      6          1           0       -0.846704    0.533159    0.000000
 ---------------------------------------------------------------------

 SCF Done:  E(RHF) =  -152.009884953     A.U. after   11 cycles
 E2 =    -0.5413305572D+00 EUMP2 =    -0.15255121551010D+03
 CCSD(T)
 CCSD(T)= -0.15257733979D+03

 The electronic state is 1-A'.
 Alpha  occ. eigenvalues --  -20.53637 -20.51053  -1.35820  -1.27481  -0.73049
 Alpha  occ. eigenvalues --   -0.69405  -0.56503  -0.51960  -0.44295  -0.43961
 Alpha virt. eigenvalues --    0.13828   0.18822   0.19694   0.24336   0.52144
 Alpha virt. eigenvalues --    0.56584   0.59629   0.65001   0.72864   0.76626
 Alpha virt. eigenvalues --    0.80938   0.81742   0.83483   0.84110   0.88569

 Mulliken charges:
               1
     1  O   -0.380776
     2  H    0.179720
     3  H    0.214185
     4  O   -0.398158
     5  H    0.144819
     6  H    0.240210
 Sum of Mulliken charges =  -0.00000

 Dipole moment (field-independent basis, Debye):
    X=             -1.3638    Y=             -1.2325    Z=              0.0000  Tot=              1.8382
 Quadrupole moment (field-independent basis, Debye-Ang):
   XX=             -9.5055   YY=             -7.2883   ZZ=            -14.6609
   XY=             -0.9889   XZ=              0.0000   YZ=              0.0000

 Normal termination of Gaussian 16 at Fri Aug 26 14:09:32 2022.
