 Gaussian 16, Revision A.03,
 Gaussian 16:  ES64L-G16RevA.03 25-Dec-2016

 ------------------
 #p CCSD(T)/cc-pVTZ
 ------------------

 ----------
 H2O_H2O_29
 ----------
 Symbolic Z-matrix:
 Charge =  0 Multiplicity = 1

                         Standard orientation:
 ---------------------------------------------------------------------
 Center     Atomic      Atomic             Coordinates (Angstroms)
 Number     Number       Type             X           Y           Z
 ---------------------------------------------------------------------
      1          8           0        0.014785   -0.814805    0.000000
      2          1           0       -0.785675   -1.384691    0.000000
      3          1           0        0.813465   -1.387182    0.000000
      4          8           0        0.014785    0.818652    0.000000
      5          1           0        0.640473    1.576293    0.000000
      6          1           0       -0.904824    1.164811    0.000000
 ---------------------------------------------------------------------

 SCF Done:  E(RHF) =  -151.923273866     A.U. after   12 cycles
 E2 =    -0.5514630237D+00 EUMP2 =    -0.15247473688977D+03
 CCSD(T)
 CCSD(T)= -0.15249906479D+03

 The electronic state is 1-A'.
 Alpha  occ. eigenvalues --  -20.51551 -20.51440  -1.36915  -1.26919  -0.71413
 Alpha  occ. eigenvalues --   -0.68792  -0.64739  -0.52991  -0.43175  -0.32873
 Alpha virt. eigenvalues --    0.14355   0.19563   0.19920   0.23140   0.51150
 Alpha virt. eigenvalues --    0.57979   0.59100   0.66035   0.68813   0.79032
 Alpha virt. eigenvalues --    0.80547   0.83728   0.83801   0.85606   0.88202

 Mulliken charges:
               1
     1  O   -0.343039
     2  H    0.163533
     3  H    0.180300
     4  O   -0.332834
     5  H    0.130740
     6  H    0.201300
 Sum of Mulliken charges =  -0.00000

 Dipole moment (field-independent basis, Debye):
    X=             -0.4247    Y=             -0.1104    Z=              0.0000  Tot=              0.4388
 Quadrupole moment (field-independent basis, Debye-Ang):
   XX=             -8.6393   YY=             -9.1658   ZZ=            -14.7678
   XY=             -0.2350   XZ=              0.0000   YZ=              0.0000

 Normal termination of Gaussian 16 at Fri Aug 26 12:05:04 2022.
