 Gaussian 16, Revision A.03,
 Gaussian 16:  ES64L-G16RevA.03 25-Dec-2016

 ------------------
 #p CCSD(T)/cc-pVTZ
 ------------------

 ------------
 H2O_H2O_1590
 ------------
 Symbolic Z-matrix:
 Charge =  0 Multiplicity = 1

                         Standard orientation:
 ---------------------------------------------------------------------
 Center     Atomic      Atomic             Coordinates (Angstroms)
 Number     Number       Type             X           Y           Z
 ---------------------------------------------------------------------
      1          8           0        0.047551   -1.613797    0.000000
      2          1           0       -0.753442   -2.182933    0.000000
      3          1           0        0.845695   -2.186921    0.000000
      4          8           0        0.047551    1.664325    0.000000
      5          1           0        0.019340    2.646523    0.000000
      6          1           0       -0.872410    1.319104    0.000000
 ---------------------------------------------------------------------

 SCF Done:  E(RHF) =  -152.105863946     A.U. after   10 cycles
 E2 =    -0.5268697695D+00 EUMP2 =    -0.15263273371574D+03
 CCSD(T)
 CCSD(T)= -0.15265992843D+03

 The electronic state is 1-A'.
 Alpha  occ. eigenvalues --  -20.55149 -20.53950  -1.32432  -1.31209  -0.69854
 Alpha  occ. eigenvalues --   -0.68596  -0.55900  -0.54418  -0.49545  -0.48316
 Alpha virt. eigenvalues --    0.13679   0.16551   0.20139   0.22611   0.53994
 Alpha virt. eigenvalues --    0.55257   0.57550   0.58536   0.64995   0.76526
 Alpha virt. eigenvalues --    0.77891   0.78206   0.78762   0.81602   0.85138

 Mulliken charges:
               1
     1  O   -0.488196
     2  H    0.239923
     3  H    0.251553
     4  O   -0.492167
     5  H    0.235731
     6  H    0.253157
 Sum of Mulliken charges =  -0.00000

 Dipole moment (field-independent basis, Debye):
    X=             -1.5713    Y=             -0.9536    Z=              0.0000  Tot=              1.8381
 Quadrupole moment (field-independent basis, Debye-Ang):
   XX=             -9.2527   YY=             -0.6574   ZZ=            -14.7152
   XY=             -1.9915   XZ=              0.0000   YZ=              0.0000

 Normal termination of Gaussian 16 at Sat Aug 27 05:38:42 2022.
