 Gaussian 16, Revision A.03,
 Gaussian 16:  ES64L-G16RevA.03 25-Dec-2016

 ------------------
 #p CCSD(T)/cc-pVTZ
 ------------------

 ------------
 H2O_H2O_4408
 ------------
 Symbolic Z-matrix:
 Charge =  0 Multiplicity = 1

                         Standard orientation:
 ---------------------------------------------------------------------
 Center     Atomic      Atomic             Coordinates (Angstroms)
 Number     Number       Type             X           Y           Z
 ---------------------------------------------------------------------
      1          8           0        0.028563   -3.135392    0.000000
      2          1           0       -0.771455   -3.705898    0.000000
      3          1           0        0.827687   -3.707149    0.000000
      4          8           0        0.028563    3.150651    0.000000
      5          1           0        0.436146    4.044732    0.000000
      6          1           0       -0.949378    3.246245    0.000000
 ---------------------------------------------------------------------

 SCF Done:  E(RHF) =  -152.106922906     A.U. after   10 cycles
 E2 =    -0.5259220111D+00 EUMP2 =    -0.15263284491694D+03
 CCSD(T)
 CCSD(T)= -0.15266007535D+03

 The electronic state is 1-A'.
 Alpha  occ. eigenvalues --  -20.55265 -20.55177  -1.32562  -1.32472  -0.69969
 Alpha  occ. eigenvalues --   -0.69877  -0.55987  -0.55898  -0.49670  -0.49581
 Alpha virt. eigenvalues --    0.14367   0.14465   0.20420   0.20515   0.54599
 Alpha virt. eigenvalues --    0.54696   0.57474   0.57564   0.68227   0.68344
 Alpha virt. eigenvalues --    0.79209   0.79297   0.80651   0.80748   0.82578

 Mulliken charges:
               1
     1  O   -0.506010
     2  H    0.252348
     3  H    0.253662
     4  O   -0.505926
     5  H    0.251996
     6  H    0.253929
 Sum of Mulliken charges =  -0.00000

 Dipole moment (field-independent basis, Debye):
    X=             -0.9813    Y=             -0.2664    Z=              0.0000  Tot=              1.0168
 Quadrupole moment (field-independent basis, Debye-Ang):
   XX=             -8.3164   YY=             11.9238   ZZ=            -14.7109
   XY=             -2.3268   XZ=              0.0000   YZ=              0.0000

 Normal termination of Gaussian 16 at Sat Aug 27 07:09:28 2022.
