 Gaussian 16, Revision A.03,
 Gaussian 16:  ES64L-G16RevA.03 25-Dec-2016

 ------------------
 #p CCSD(T)/cc-pVTZ
 ------------------

 ------------
 H2O_H2O_2043
 ------------
 Symbolic Z-matrix:
 Charge =  0 Multiplicity = 1

                         Standard orientation:
 ---------------------------------------------------------------------
 Center     Atomic      Atomic             Coordinates (Angstroms)
 Number     Number       Type             X           Y           Z
 ---------------------------------------------------------------------
      1          8           0        0.052851   -1.842409    0.000000
      2          1           0       -0.748100   -2.411605    0.000000
      3          1           0        0.851038   -2.415474    0.000000
      4          8           0        0.052851    1.912667    0.000000
      5          1           0       -0.166506    2.870471    0.000000
      6          1           0       -0.782045    1.394541    0.000000
 ---------------------------------------------------------------------

 SCF Done:  E(RHF) =  -152.107355628     A.U. after   10 cycles
 E2 =    -0.5263446312D+00 EUMP2 =    -0.15263370025940D+03
 CCSD(T)
 CCSD(T)= -0.15266088103D+03

 The electronic state is 1-A'.
 Alpha  occ. eigenvalues --  -20.55568 -20.54253  -1.32843  -1.31534  -0.70256
 Alpha  occ. eigenvalues --   -0.68906  -0.56260  -0.54952  -0.49956  -0.48655
 Alpha virt. eigenvalues --    0.13343   0.16152   0.20031   0.22470   0.54061
 Alpha virt. eigenvalues --    0.54376   0.57241   0.58538   0.64959   0.75509
 Alpha virt. eigenvalues --    0.78583   0.78890   0.80344   0.80482   0.84810

 Mulliken charges:
               1
     1  O   -0.499634
     2  H    0.246502
     3  H    0.255813
     4  O   -0.504868
     5  H    0.243256
     6  H    0.258932
 Sum of Mulliken charges =  -0.00000

 Dipole moment (field-independent basis, Debye):
    X=             -1.7755    Y=             -1.2979    Z=              0.0000  Tot=              2.1993
 Quadrupole moment (field-independent basis, Debye-Ang):
   XX=             -9.5645   YY=             -0.0373   ZZ=            -14.7152
   XY=             -2.9598   XZ=              0.0000   YZ=              0.0000

 Normal termination of Gaussian 16 at Sat Aug 27 08:16:04 2022.
