 Gaussian 16, Revision A.03,
 Gaussian 16:  ES64L-G16RevA.03 25-Dec-2016

 ------------------
 #p CCSD(T)/cc-pVTZ
 ------------------

 ------------
 H2O_H2O_1262
 ------------
 Symbolic Z-matrix:
 Charge =  0 Multiplicity = 1

                         Standard orientation:
 ---------------------------------------------------------------------
 Center     Atomic      Atomic             Coordinates (Angstroms)
 Number     Number       Type             X           Y           Z
 ---------------------------------------------------------------------
      1          8           0        0.040425   -1.450326    0.000000
      2          1           0       -0.760498   -2.019562    0.000000
      3          1           0        0.838640   -2.023352    0.000000
      4          8           0        0.040425    1.483591    0.000000
      5          1           0        0.204252    2.452438    0.000000
      6          1           0       -0.929189    1.324357    0.000000
 ---------------------------------------------------------------------

 SCF Done:  E(RHF) =  -152.103108392     A.U. after   10 cycles
 E2 =    -0.5275400010D+00 EUMP2 =    -0.15263064839281D+03
 CCSD(T)
 CCSD(T)= -0.15265788343D+03

 The electronic state is 1-A'.
 Alpha  occ. eigenvalues --  -20.54570 -20.53668  -1.31911  -1.30916  -0.69336
 Alpha  occ. eigenvalues --   -0.68347  -0.55859  -0.53417  -0.49053  -0.47961
 Alpha virt. eigenvalues --    0.13988   0.16843   0.20282   0.22580   0.53401
 Alpha virt. eigenvalues --    0.57787   0.57943   0.58725   0.67211   0.76193
 Alpha virt. eigenvalues --    0.77083   0.77319   0.80495   0.82675   0.85551

 Mulliken charges:
               1
     1  O   -0.478731
     2  H    0.234030
     3  H    0.246793
     4  O   -0.475422
     5  H    0.227668
     6  H    0.245663
 Sum of Mulliken charges =  -0.00000

 Dipole moment (field-independent basis, Debye):
    X=             -1.3119    Y=             -0.6357    Z=              0.0000  Tot=              1.4579
 Quadrupole moment (field-independent basis, Debye-Ang):
   XX=             -8.8970   YY=             -1.3905   ZZ=            -14.7157
   XY=             -1.2479   XZ=              0.0000   YZ=              0.0000

 Normal termination of Gaussian 16 at Sat Aug 27 03:27:29 2022.
