 Gaussian 16, Revision A.03,
 Gaussian 16:  ES64L-G16RevA.03 25-Dec-2016

 ------------------
 #p CCSD(T)/cc-pVTZ
 ------------------

 -----------
 H2O_H2O_167
 -----------
 Symbolic Z-matrix:
 Charge =  0 Multiplicity = 1

                         Standard orientation:
 ---------------------------------------------------------------------
 Center     Atomic      Atomic             Coordinates (Angstroms)
 Number     Number       Type             X           Y           Z
 ---------------------------------------------------------------------
      1          8           0        0.051382   -0.849048    0.000000
      2          1           0       -0.751039   -1.416169    0.000000
      3          1           0        0.848083   -1.424176    0.000000
      4          8           0        0.051382    0.912239    0.000000
      5          1           0       -0.102351    1.882740    0.000000
      6          1           0       -0.816807    0.452072    0.000000
 ---------------------------------------------------------------------

 SCF Done:  E(RHF) =  -151.986597416     A.U. after   11 cycles
 E2 =    -0.5439288632D+00 EUMP2 =    -0.15253052627943D+03
 CCSD(T)
 CCSD(T)= -0.15255630504D+03

 The electronic state is 1-A'.
 Alpha  occ. eigenvalues --  -20.53900 -20.50673  -1.37126  -1.27050  -0.74347
 Alpha  occ. eigenvalues --   -0.70145  -0.55572  -0.52788  -0.43934  -0.43054
 Alpha virt. eigenvalues --    0.13689   0.18989   0.19617   0.24566   0.51612
 Alpha virt. eigenvalues --    0.56145   0.60138   0.65755   0.73039   0.76689
 Alpha virt. eigenvalues --    0.80793   0.81011   0.84022   0.84044   0.88647

 Mulliken charges:
               1
     1  O   -0.358187
     2  H    0.169534
     3  H    0.210394
     4  O   -0.399449
     5  H    0.134172
     6  H    0.243535
 Sum of Mulliken charges =  -0.00000

 Dipole moment (field-independent basis, Debye):
    X=             -1.3868    Y=             -1.4131    Z=              0.0000  Tot=              1.9799
 Quadrupole moment (field-independent basis, Debye-Ang):
   XX=             -9.6045   YY=             -7.7903   ZZ=            -14.6336
   XY=             -1.0563   XZ=              0.0000   YZ=              0.0000

 Normal termination of Gaussian 16 at Fri Aug 26 13:33:37 2022.
