 Gaussian 16, Revision A.03,
 Gaussian 16:  ES64L-G16RevA.03 25-Dec-2016

 ------------------
 #p CCSD(T)/cc-pVTZ
 ------------------

 ------------
 H2O_H2O_3522
 ------------
 Symbolic Z-matrix:
 Charge =  0 Multiplicity = 1

                         Standard orientation:
 ---------------------------------------------------------------------
 Center     Atomic      Atomic             Coordinates (Angstroms)
 Number     Number       Type             X           Y           Z
 ---------------------------------------------------------------------
      1          8           0        0.056715   -2.611201    0.000000
      2          1           0       -0.743900   -3.180868    0.000000
      3          1           0        0.855239   -3.183797    0.000000
      4          8           0        0.056715    2.710311    0.000000
      5          1           0       -0.403576    3.578434    0.000000
      6          1           0       -0.615210    1.993357    0.000000
 ---------------------------------------------------------------------

 SCF Done:  E(RHF) =  -152.107733730     A.U. after   10 cycles
 E2 =    -0.5258888415D+00 EUMP2 =    -0.15263362257158D+03
 CCSD(T)
 CCSD(T)= -0.15266083200D+03

 The electronic state is 1-A'.
 Alpha  occ. eigenvalues --  -20.55756 -20.54921  -1.33055  -1.32220  -0.70460
 Alpha  occ. eigenvalues --   -0.69612  -0.56516  -0.55673  -0.50168  -0.49337
 Alpha virt. eigenvalues --    0.13698   0.14933   0.20017   0.21011   0.54072
 Alpha virt. eigenvalues --    0.54895   0.57046   0.57810   0.67164   0.69101
 Alpha virt. eigenvalues --    0.78716   0.79527   0.80075   0.80498   0.82703

 Mulliken charges:
               1
     1  O   -0.510604
     2  H    0.253388
     3  H    0.257336
     4  O   -0.510067
     5  H    0.250907
     6  H    0.259039
 Sum of Mulliken charges =  -0.00000

 Dipole moment (field-independent basis, Debye):
    X=             -1.9432    Y=             -1.7489    Z=              0.0000  Tot=              2.6143
 Quadrupole moment (field-independent basis, Debye-Ang):
   XX=             -9.8268   YY=              1.9036   ZZ=            -14.7132
   XY=             -5.1862   XZ=              0.0000   YZ=              0.0000

 502909\MP4DQ=-152.642739\MP4SDQ=-152.645793\CCSD=-152.6452058\CCSD(T)=
 Normal termination of Gaussian 16 at Sat Aug 27 01:12:59 2022.
