 Gaussian 16, Revision A.03,
 Gaussian 16:  ES64L-G16RevA.03 25-Dec-2016

 ------------------
 #p CCSD(T)/cc-pVTZ
 ------------------

 ------------
 H2O_H2O_2124
 ------------
 Symbolic Z-matrix:
 Charge =  0 Multiplicity = 1

                         Standard orientation:
 ---------------------------------------------------------------------
 Center     Atomic      Atomic             Coordinates (Angstroms)
 Number     Number       Type             X           Y           Z
 ---------------------------------------------------------------------
      1          8           0        0.057260   -1.858579    0.000000
      2          1           0       -0.743775   -2.427657    0.000000
      3          1           0        0.855362   -2.431761    0.000000
      4          8           0        0.057260    1.972512    0.000000
      5          1           0       -0.511818    2.773546    0.000000
      6          1           0       -0.515923    1.174408    0.000000
 ---------------------------------------------------------------------

 SCF Done:  E(RHF) =  -152.109290287     A.U. after   10 cycles
 E2 =    -0.5262581838D+00 EUMP2 =    -0.15263554847047D+03
 CCSD(T)
 CCSD(T)= -0.15266268475D+03

 The electronic state is 1-A'.
 Alpha  occ. eigenvalues --  -20.56285 -20.54135  -1.33551  -1.31442  -0.70954
 Alpha  occ. eigenvalues --   -0.68810  -0.57050  -0.54921  -0.50676  -0.48575
 Alpha virt. eigenvalues --    0.12868   0.16304   0.19709   0.23687   0.53452
 Alpha virt. eigenvalues --    0.55530   0.56616   0.58469   0.66921   0.73435
 Alpha virt. eigenvalues --    0.77943   0.79338   0.79841   0.80387   0.83458

 Mulliken charges:
               1
     1  O   -0.504270
     2  H    0.250571
     3  H    0.259006
     4  O   -0.515793
     5  H    0.245967
     6  H    0.264519
 Sum of Mulliken charges =  -0.00000

 Dipole moment (field-independent basis, Debye):
    X=             -1.9302    Y=             -2.1171    Z=              0.0000  Tot=              2.8649
 Quadrupole moment (field-independent basis, Debye-Ang):
   XX=             -9.8603   YY=             -2.4527   ZZ=            -14.7194
   XY=             -4.0627   XZ=              0.0000   YZ=              0.0000

 Normal termination of Gaussian 16 at Sat Aug 27 08:43:29 2022.
