 Gaussian 16, Revision A.03,
 Gaussian 16:  ES64L-G16RevA.03 25-Dec-2016

 ------------------
 #p CCSD(T)/cc-pVTZ
 ------------------

 ------------
 H2O_H2O_1415
 ------------
 Symbolic Z-matrix:
 Charge =  0 Multiplicity = 1

                         Standard orientation:
 ---------------------------------------------------------------------
 Center     Atomic      Atomic             Coordinates (Angstroms)
 Number     Number       Type             X           Y           Z
 ---------------------------------------------------------------------
      1          8           0        0.047555   -1.520733    0.000000
      2          1           0       -0.753524   -2.089749    0.000000
      3          1           0        0.845613   -2.093977    0.000000
      4          8           0        0.047555    1.571247    0.000000
      5          1           0        0.019491    2.553449    0.000000
      6          1           0       -0.872458    1.226164    0.000000
 ---------------------------------------------------------------------

 SCF Done:  E(RHF) =  -152.105258774     A.U. after   10 cycles
 E2 =    -0.5271849092D+00 EUMP2 =    -0.15263244368326D+03
 CCSD(T)
 CCSD(T)= -0.15265964030D+03

 The electronic state is 1-A'.
 Alpha  occ. eigenvalues --  -20.55090 -20.53763  -1.32392  -1.31016  -0.69816
 Alpha  occ. eigenvalues --   -0.68422  -0.55932  -0.54095  -0.49511  -0.48112
 Alpha virt. eigenvalues --    0.13732   0.16756   0.20118   0.22856   0.54048
 Alpha virt. eigenvalues --    0.56080   0.57575   0.58414   0.66219   0.76095
 Alpha virt. eigenvalues --    0.77263   0.77285   0.79557   0.82104   0.85170

 Mulliken charges:
               1
     1  O   -0.484270
     2  H    0.237602
     3  H    0.250691
     4  O   -0.487609
     5  H    0.232029
     6  H    0.251555
 Sum of Mulliken charges =  -0.00000

 Dipole moment (field-independent basis, Debye):
    X=             -1.5571    Y=             -0.9636    Z=              0.0000  Tot=              1.8311
 Quadrupole moment (field-independent basis, Debye-Ang):
   XX=             -9.2622   YY=             -1.2998   ZZ=            -14.7168
   XY=             -1.8464   XZ=              0.0000   YZ=              0.0000

 Normal termination of Gaussian 16 at Sat Aug 27 04:37:28 2022.
