 Gaussian 16, Revision A.03,
 Gaussian 16:  ES64L-G16RevA.03 25-Dec-2016

 ------------------
 #p CCSD(T)/cc-pVTZ
 ------------------

 -----------
 H2O_H2O_361
 -----------
 Symbolic Z-matrix:
 Charge =  0 Multiplicity = 1

                         Standard orientation:
 ---------------------------------------------------------------------
 Center     Atomic      Atomic             Coordinates (Angstroms)
 Number     Number       Type             X           Y           Z
 ---------------------------------------------------------------------
      1          8           0        0.037704   -0.974477    0.000000
      2          1           0       -0.763736   -1.542984    0.000000
      3          1           0        0.835398   -1.548228    0.000000
      4          8           0        0.037704    1.002576    0.000000
      5          1           0        0.265415    1.958429    0.000000
      6          1           0       -0.940336    0.907989    0.000000
 ---------------------------------------------------------------------

 SCF Done:  E(RHF) =  -152.051750545     A.U. after   11 cycles
 E2 =    -0.5357429704D+00 EUMP2 =    -0.15258749351541D+03
 CCSD(T)
 CCSD(T)= -0.15261423923D+03

 The electronic state is 1-A'.
 Alpha  occ. eigenvalues --  -20.52812 -20.51849  -1.32913  -1.28515  -0.69852
 Alpha  occ. eigenvalues --   -0.67553  -0.59167  -0.49938  -0.45116  -0.45085
 Alpha virt. eigenvalues --    0.14299   0.18215   0.20154   0.23484   0.53216
 Alpha virt. eigenvalues --    0.57324   0.58460   0.63979   0.71334   0.76933
 Alpha virt. eigenvalues --    0.79489   0.81980   0.83489   0.85569   0.88241

 Mulliken charges:
               1
     1  O   -0.434425
     2  H    0.206430
     3  H    0.226024
     4  O   -0.404010
     5  H    0.171239
     6  H    0.234742
 Sum of Mulliken charges =  -0.00000

 Dipole moment (field-independent basis, Debye):
    X=             -1.0860    Y=             -0.5820    Z=              0.0000  Tot=              1.2321
 Quadrupole moment (field-independent basis, Debye-Ang):
   XX=             -8.9305   YY=             -5.9336   ZZ=            -14.7239
   XY=             -0.5743   XZ=              0.0000   YZ=              0.0000

 Normal termination of Gaussian 16 at Fri Aug 26 15:39:32 2022.
