 Gaussian 16, Revision A.03,
 Gaussian 16:  ES64L-G16RevA.03 25-Dec-2016

 ------------------
 #p CCSD(T)/cc-pVTZ
 ------------------

 ------------
 H2O_H2O_2101
 ------------
 Symbolic Z-matrix:
 Charge =  0 Multiplicity = 1

                         Standard orientation:
 ---------------------------------------------------------------------
 Center     Atomic      Atomic             Coordinates (Angstroms)
 Number     Number       Type             X           Y           Z
 ---------------------------------------------------------------------
      1          8           0        0.003735   -1.920323    0.000000
      2          1           0       -0.795931   -2.491321    0.000000
      3          1           0        0.803211   -2.491589    0.000000
      4          8           0        0.003735    1.920567    0.000000
      5          1           0        0.764346    2.542642    0.000000
      6          1           0       -0.831391    2.438321    0.000000
 ---------------------------------------------------------------------

 SCF Done:  E(RHF) =  -152.104822851     A.U. after   10 cycles
 E2 =    -0.5263875368D+00 EUMP2 =    -0.15263121038787D+03
 CCSD(T)
 CCSD(T)= -0.15265846070D+03

 The electronic state is 1-A'.
 Alpha  occ. eigenvalues --  -20.54484 -20.54480  -1.31775  -1.31752  -0.69194
 Alpha  occ. eigenvalues --   -0.69172  -0.55321  -0.54800  -0.48894  -0.48823
 Alpha virt. eigenvalues --    0.14211   0.15759   0.20632   0.21197   0.54140
 Alpha virt. eigenvalues --    0.56610   0.57925   0.58236   0.61475   0.75209
 Alpha virt. eigenvalues --    0.79434   0.80541   0.80546   0.80939   0.82416

 Mulliken charges:
               1
     1  O   -0.491636
     2  H    0.245494
     3  H    0.246147
     4  O   -0.491631
     5  H    0.245427
     6  H    0.246199
 Sum of Mulliken charges =  -0.00000

 Dipole moment (field-independent basis, Debye):
    X=             -0.1258    Y=             -0.0044    Z=              0.0000  Tot=              0.1259
 Quadrupole moment (field-independent basis, Debye-Ang):
   XX=             -7.8506   YY=              3.1887   ZZ=            -14.7092
   XY=             -0.1327   XZ=              0.0000   YZ=              0.0000

 Normal termination of Gaussian 16 at Sat Aug 27 08:35:40 2022.
