 Gaussian 16, Revision A.03,
 Gaussian 16:  ES64L-G16RevA.03 25-Dec-2016

 ------------------
 #p CCSD(T)/cc-pVTZ
 ------------------

 ------------
 H2O_H2O_2461
 ------------
 Symbolic Z-matrix:
 Charge =  0 Multiplicity = 1

                         Standard orientation:
 ---------------------------------------------------------------------
 Center     Atomic      Atomic             Coordinates (Angstroms)
 Number     Number       Type             X           Y           Z
 ---------------------------------------------------------------------
      1          8           0        0.037679   -2.091265    0.000000
      2          1           0       -0.762770   -2.661166    0.000000
      3          1           0        0.836370   -2.663628    0.000000
      4          8           0        0.037679    2.119496    0.000000
      5          1           0        0.263728    3.075743    0.000000
      6          1           0       -0.940194    2.023207    0.000000
 ---------------------------------------------------------------------

 SCF Done:  E(RHF) =  -152.106118077     A.U. after   10 cycles
 E2 =    -0.5261574524D+00 EUMP2 =    -0.15263227552894D+03
 CCSD(T)
 CCSD(T)= -0.15265950758D+03

 The electronic state is 1-A'.
 Alpha  occ. eigenvalues --  -20.55001 -20.54615  -1.32288  -1.31898  -0.69701
 Alpha  occ. eigenvalues --   -0.69296  -0.55680  -0.55259  -0.49391  -0.49004
 Alpha virt. eigenvalues --    0.13923   0.15516   0.20402   0.21222   0.54088
 Alpha virt. eigenvalues --    0.55324   0.57676   0.58054   0.64754   0.73649
 Alpha virt. eigenvalues --    0.79381   0.79964   0.80566   0.81318   0.82740

 Mulliken charges:
               1
     1  O   -0.500179
     2  H    0.247605
     3  H    0.252848
     4  O   -0.499902
     5  H    0.246202
     6  H    0.253426
 Sum of Mulliken charges =  -0.00000

 Dipole moment (field-independent basis, Debye):
    X=             -1.2775    Y=             -0.5080    Z=              0.0000  Tot=              1.3748
 Quadrupole moment (field-independent basis, Debye-Ang):
   XX=             -8.7095   YY=              3.5143   ZZ=            -14.7109
   XY=             -1.9005   XZ=              0.0000   YZ=              0.0000

 Normal termination of Gaussian 16 at Sat Aug 27 10:41:13 2022.
