 Gaussian 16, Revision A.03,
 Gaussian 16:  ES64L-G16RevA.03 25-Dec-2016

 ------------------
 #p CCSD(T)/cc-pVTZ
 ------------------

 ------------
 H2O_H2O_1850
 ------------
 Symbolic Z-matrix:
 Charge =  0 Multiplicity = 1

                         Standard orientation:
 ---------------------------------------------------------------------
 Center     Atomic      Atomic             Coordinates (Angstroms)
 Number     Number       Type             X           Y           Z
 ---------------------------------------------------------------------
      1          8           0        0.000000   -0.000000    1.787496
      2          1           0        0.000000    0.799571    2.358628
      3          1           0       -0.000000   -0.799571    2.358628
      4          8           0        0.000000   -0.000000   -1.787496
      5          1           0       -0.000000   -0.799571   -2.358628
      6          1           0        0.000000    0.799571   -2.358628
 ---------------------------------------------------------------------

 SCF Done:  E(RHF) =  -152.104183756     A.U. after   10 cycles
 E2 =    -0.5265967370D+00 EUMP2 =    -0.15263078049351D+03
 CCSD(T)
 CCSD(T)= -0.15265803624D+03

 The electronic state is 1-AG.
 Alpha  occ. eigenvalues --  -20.54324 -20.54324  -1.31627  -1.31580  -0.69049
 Alpha  occ. eigenvalues --   -0.69007  -0.55309  -0.54410  -0.48762  -0.48629
 Alpha virt. eigenvalues --    0.14237   0.16030   0.20618   0.21370   0.53551
 Alpha virt. eigenvalues --    0.57465   0.57985   0.58375   0.60926   0.75777
 Alpha virt. eigenvalues --    0.79124   0.79757   0.80366   0.81092   0.83564

 Mulliken charges:
               1
     1  O   -0.486421
     2  H    0.243210
     3  H    0.243210
     4  O   -0.486421
     5  H    0.243210
     6  H    0.243210
 Sum of Mulliken charges =   0.00000

 Dipole moment (field-independent basis, Debye):
    X=             -0.0000    Y=              0.0000    Z=              0.0000  Tot=              0.0000
 Quadrupole moment (field-independent basis, Debye-Ang):
   XX=            -14.7088   YY=             -7.8543   ZZ=              2.0801
   XY=              0.0000   XZ=              0.0000   YZ=             -0.0000

 \MP4DQ=-152.6398059\MP4SDQ=-152.6429093\CCSD=-152.642302\CCSD(T)=-152.
 Normal termination of Gaussian 16 at Sat Aug 27 07:09:56 2022.
