 Gaussian 16, Revision A.03,
 Gaussian 16:  ES64L-G16RevA.03 25-Dec-2016

 ------------------
 #p CCSD(T)/cc-pVTZ
 ------------------

 -----------
 H2O_H2O_736
 -----------
 Symbolic Z-matrix:
 Charge =  0 Multiplicity = 1

                         Standard orientation:
 ---------------------------------------------------------------------
 Center     Atomic      Atomic             Coordinates (Angstroms)
 Number     Number       Type             X           Y           Z
 ---------------------------------------------------------------------
      1          8           0        0.037696   -1.173894    0.000000
      2          1           0       -0.763430   -1.742842    0.000000
      3          1           0        0.835706   -1.747206    0.000000
      4          8           0        0.037696    1.202035    0.000000
      5          1           0        0.264881    2.158012    0.000000
      6          1           0       -0.940291    1.106909    0.000000
 ---------------------------------------------------------------------

 SCF Done:  E(RHF) =  -152.090902879     A.U. after   11 cycles
 E2 =    -0.5300670574D+00 EUMP2 =    -0.15262096993614D+03
 CCSD(T)
 CCSD(T)= -0.15264817124D+03

 The electronic state is 1-A'.
 Alpha  occ. eigenvalues --  -20.53740 -20.52807  -1.31719  -1.29948  -0.69017
 Alpha  occ. eigenvalues --   -0.67734  -0.57124  -0.50226  -0.48960  -0.46756
 Alpha virt. eigenvalues --    0.14209   0.17533   0.20308   0.23101   0.52886
 Alpha virt. eigenvalues --    0.58114   0.58253   0.61747   0.70672   0.76003
 Alpha virt. eigenvalues --    0.77626   0.80162   0.83597   0.85874   0.87394

 Mulliken charges:
               1
     1  O   -0.464982
     2  H    0.223859
     3  H    0.241107
     4  O   -0.446725
     5  H    0.206291
     6  H    0.240449
 Sum of Mulliken charges =   0.00000

 Dipole moment (field-independent basis, Debye):
    X=             -1.1605    Y=             -0.5528    Z=              0.0000  Tot=              1.2854
 Quadrupole moment (field-independent basis, Debye-Ang):
   XX=             -8.8434   YY=             -3.7085   ZZ=            -14.7271
   XY=             -0.7750   XZ=              0.0000   YZ=              0.0000

 Normal termination of Gaussian 16 at Fri Aug 26 19:33:06 2022.
