 Gaussian 16, Revision A.03,
 Gaussian 16:  ES64L-G16RevA.03 25-Dec-2016

 ------------------
 #p CCSD(T)/cc-pVTZ
 ------------------

 -----------
 H2O_H2O_215
 -----------
 Symbolic Z-matrix:
 Charge =  0 Multiplicity = 1

                         Standard orientation:
 ---------------------------------------------------------------------
 Center     Atomic      Atomic             Coordinates (Angstroms)
 Number     Number       Type             X           Y           Z
 ---------------------------------------------------------------------
      1          8           0        0.047602   -0.882622    0.000000
      2          1           0       -0.754533   -1.450147    0.000000
      3          1           0        0.844593   -1.457348    0.000000
      4          8           0        0.047602    0.932959    0.000000
      5          1           0        0.021364    1.915210    0.000000
      6          1           0       -0.873051    0.589586    0.000000
 ---------------------------------------------------------------------

 SCF Done:  E(RHF) =  -152.011736868     A.U. after   11 cycles
 E2 =    -0.5410329138D+00 EUMP2 =    -0.15255276978158D+03
 CCSD(T)
 CCSD(T)= -0.15257893387D+03

 The electronic state is 1-A'.
 Alpha  occ. eigenvalues --  -20.53347 -20.51229  -1.35449  -1.27557  -0.72560
 Alpha  occ. eigenvalues --   -0.69093  -0.57318  -0.51723  -0.44319  -0.43456
 Alpha virt. eigenvalues --    0.13932   0.18750   0.19762   0.24136   0.52555
 Alpha virt. eigenvalues --    0.56780   0.59173   0.64821   0.72819   0.76776
 Alpha virt. eigenvalues --    0.80997   0.82173   0.82894   0.84218   0.88617

 Mulliken charges:
               1
     1  O   -0.386585
     2  H    0.181842
     3  H    0.213082
     4  O   -0.390146
     5  H    0.144434
     6  H    0.237373
 Sum of Mulliken charges =  -0.00000

 Dipole moment (field-independent basis, Debye):
    X=             -1.3117    Y=             -1.0887    Z=              0.0000  Tot=              1.7046
 Quadrupole moment (field-independent basis, Debye-Ang):
   XX=             -9.4090   YY=             -7.2273   ZZ=            -14.6713
   XY=             -0.8785   XZ=              0.0000   YZ=              0.0000

 Normal termination of Gaussian 16 at Fri Aug 26 14:08:57 2022.
