 Gaussian 16, Revision A.03,
 Gaussian 16:  ES64L-G16RevA.03 25-Dec-2016

 ------------------
 #p CCSD(T)/cc-pVTZ
 ------------------

 ------------
 H2O_H2O_1457
 ------------
 Symbolic Z-matrix:
 Charge =  0 Multiplicity = 1

                         Standard orientation:
 ---------------------------------------------------------------------
 Center     Atomic      Atomic             Coordinates (Angstroms)
 Number     Number       Type             X           Y           Z
 ---------------------------------------------------------------------
      1          8           0        0.025269   -1.568401    0.000000
      2          1           0       -0.775090   -2.138428    0.000000
      3          1           0        0.824050   -2.140637    0.000000
      4          8           0        0.025269    1.580111    0.000000
      5          1           0        0.490972    2.445343    0.000000
      6          1           0       -0.944230    1.740041    0.000000
 ---------------------------------------------------------------------

 SCF Done:  E(RHF) =  -152.103036831     A.U. after   10 cycles
 E2 =    -0.5271152663D+00 EUMP2 =    -0.15263015209763D+03
 CCSD(T)
 CCSD(T)= -0.15265741656D+03

 The electronic state is 1-A'.
 Alpha  occ. eigenvalues --  -20.54231 -20.53960  -1.31544  -1.31218  -0.68969
 Alpha  occ. eigenvalues --   -0.68645  -0.55541  -0.53638  -0.48694  -0.48246
 Alpha virt. eigenvalues --    0.14196   0.16539   0.20491   0.21882   0.52538
 Alpha virt. eigenvalues --    0.57979   0.58185   0.58782   0.64656   0.76841
 Alpha virt. eigenvalues --    0.78058   0.78636   0.79198   0.82212   0.85849

 Mulliken charges:
               1
     1  O   -0.478885
     2  H    0.235987
     3  H    0.243381
     4  O   -0.477180
     5  H    0.234292
     6  H    0.242405
 Sum of Mulliken charges =  -0.00000

 Dipole moment (field-independent basis, Debye):
    X=             -0.8319    Y=             -0.2204    Z=              0.0000  Tot=              0.8606
 Quadrupole moment (field-independent basis, Debye-Ang):
   XX=             -8.2743   YY=             -0.0098   ZZ=            -14.7106
   XY=             -0.6995   XZ=              0.0000   YZ=              0.0000

 Normal termination of Gaussian 16 at Sat Aug 27 04:52:20 2022.
