 Gaussian 16, Revision A.03,
 Gaussian 16:  ES64L-G16RevA.03 25-Dec-2016

 ------------------
 #p CCSD(T)/cc-pVTZ
 ------------------

 ------------
 H2O_H2O_1432
 ------------
 Symbolic Z-matrix:
 Charge =  0 Multiplicity = 1

                         Standard orientation:
 ---------------------------------------------------------------------
 Center     Atomic      Atomic             Coordinates (Angstroms)
 Number     Number       Type             X           Y           Z
 ---------------------------------------------------------------------
      1          8           0        0.025269   -1.555106    0.000000
      2          1           0       -0.775097   -2.125123    0.000000
      3          1           0        0.824043   -2.127351    0.000000
      4          8           0        0.025269    1.566815    0.000000
      5          1           0        0.490982    2.432041    0.000000
      6          1           0       -0.944228    1.726757    0.000000
 ---------------------------------------------------------------------

 SCF Done:  E(RHF) =  -152.102881105     A.U. after   11 cycles
 E2 =    -0.5271608279D+00 EUMP2 =    -0.15263004193254D+03
 CCSD(T)
 CCSD(T)= -0.15265730848D+03

 The electronic state is 1-A'.
 Alpha  occ. eigenvalues --  -20.54208 -20.53934  -1.31526  -1.31191  -0.68950
 Alpha  occ. eigenvalues --   -0.68620  -0.55561  -0.53561  -0.48681  -0.48213
 Alpha virt. eigenvalues --    0.14204   0.16570   0.20490   0.21908   0.52493
 Alpha virt. eigenvalues --    0.58093   0.58200   0.58833   0.64932   0.76819
 Alpha virt. eigenvalues --    0.77982   0.78676   0.79108   0.82293   0.85864

 Mulliken charges:
               1
     1  O   -0.478311
     2  H    0.235610
     3  H    0.243164
     4  O   -0.476341
     5  H    0.233816
     6  H    0.242061
 Sum of Mulliken charges =  -0.00000

 Dipole moment (field-independent basis, Debye):
    X=             -0.8308    Y=             -0.2206    Z=              0.0000  Tot=              0.8596
 Quadrupole moment (field-independent basis, Debye-Ang):
   XX=             -8.2766   YY=             -0.1224   ZZ=            -14.7107
   XY=             -0.6886   XZ=              0.0000   YZ=              0.0000

 Normal termination of Gaussian 16 at Sat Aug 27 04:43:55 2022.
