 Gaussian 16, Revision A.03,
 Gaussian 16:  ES64L-G16RevA.03 25-Dec-2016

 ------------------
 #p CCSD(T)/cc-pVTZ
 ------------------

 ------------
 H2O_H2O_1249
 ------------
 Symbolic Z-matrix:
 Charge =  0 Multiplicity = 1

                         Standard orientation:
 ---------------------------------------------------------------------
 Center     Atomic      Atomic             Coordinates (Angstroms)
 Number     Number       Type             X           Y           Z
 ---------------------------------------------------------------------
      1          8           0        0.057306   -1.393271    0.000000
      2          1           0       -0.744196   -1.961689    0.000000
      3          1           0        0.854937   -1.967110    0.000000
      4          8           0        0.057306    1.507110    0.000000
      5          1           0       -0.511111    2.308612    0.000000
      6          1           0       -0.516533    0.709479    0.000000
 ---------------------------------------------------------------------

 SCF Done:  E(RHF) =  -152.109428710     A.U. after   10 cycles
 E2 =    -0.5279491959D+00 EUMP2 =    -0.15263737790579D+03
 CCSD(T)
 CCSD(T)= -0.15266440027D+03

 The electronic state is 1-A'.
 Alpha  occ. eigenvalues --  -20.56917 -20.52799  -1.34300  -1.30185  -0.71668
 Alpha  occ. eigenvalues --   -0.67993  -0.57500  -0.53696  -0.51400  -0.47311
 Alpha virt. eigenvalues --    0.12852   0.17612   0.19421   0.26545   0.51230
 Alpha virt. eigenvalues --    0.56039   0.57176   0.59366   0.69660   0.74146
 Alpha virt. eigenvalues --    0.74364   0.78427   0.82184   0.83761   0.84164

 Mulliken charges:
               1
     1  O   -0.489253
     2  H    0.245828
     3  H    0.261102
     4  O   -0.522218
     5  H    0.234883
     6  H    0.269658
 Sum of Mulliken charges =  -0.00000

 Dipole moment (field-independent basis, Debye):
    X=             -1.8623    Y=             -2.3046    Z=              0.0000  Tot=              2.9629
 Quadrupole moment (field-independent basis, Debye-Ang):
   XX=             -9.8577   YY=             -4.5073   ZZ=            -14.7280
   XY=             -3.1862   XZ=              0.0000   YZ=              0.0000

 Normal termination of Gaussian 16 at Sat Aug 27 03:21:32 2022.
