 Gaussian 16, Revision A.03,
 Gaussian 16:  ES64L-G16RevA.03 25-Dec-2016

 ------------------
 #p CCSD(T)/cc-pVTZ
 ------------------

 -----------
 H2O_H2O_761
 -----------
 Symbolic Z-matrix:
 Charge =  0 Multiplicity = 1

                         Standard orientation:
 ---------------------------------------------------------------------
 Center     Atomic      Atomic             Coordinates (Angstroms)
 Number     Number       Type             X           Y           Z
 ---------------------------------------------------------------------
      1          8           0        0.037696   -1.187189    0.000000
      2          1           0       -0.763414   -1.756161    0.000000
      3          1           0        0.835722   -1.760476    0.000000
      4          8           0        0.037696    1.215332    0.000000
      5          1           0        0.264852    2.171316    0.000000
      6          1           0       -0.940289    1.120177    0.000000
 ---------------------------------------------------------------------

 SCF Done:  E(RHF) =  -152.092069829     A.U. after   11 cycles
 E2 =    -0.5298616939D+00 EUMP2 =    -0.15262193152260D+03
 CCSD(T)
 CCSD(T)= -0.15264914224D+03

 The electronic state is 1-A'.
 Alpha  occ. eigenvalues --  -20.53788 -20.52861  -1.31699  -1.30015  -0.69011
 Alpha  occ. eigenvalues --   -0.67764  -0.57023  -0.50449  -0.48939  -0.46838
 Alpha virt. eigenvalues --    0.14201   0.17496   0.20311   0.23073   0.52885
 Alpha virt. eigenvalues --    0.58135   0.58252   0.61594   0.70636   0.76005
 Alpha virt. eigenvalues --    0.77516   0.79948   0.83586   0.85870   0.87343

 Mulliken charges:
               1
     1  O   -0.465912
     2  H    0.224498
     3  H    0.241515
     4  O   -0.448570
     5  H    0.207920
     6  H    0.240549
 Sum of Mulliken charges =  -0.00000

 Dipole moment (field-independent basis, Debye):
    X=             -1.1645    Y=             -0.5518    Z=              0.0000  Tot=              1.2886
 Quadrupole moment (field-independent basis, Debye-Ang):
   XX=             -8.8387   YY=             -3.5804   ZZ=            -14.7265
   XY=             -0.7900   XZ=              0.0000   YZ=              0.0000

 Normal termination of Gaussian 16 at Fri Aug 26 19:45:27 2022.
