 Gaussian 16, Revision A.03,
 Gaussian 16:  ES64L-G16RevA.03 25-Dec-2016

 ------------------
 #p CCSD(T)/cc-pVTZ
 ------------------

 -----------
 H2O_H2O_848
 -----------
 Symbolic Z-matrix:
 Charge =  0 Multiplicity = 1

                         Standard orientation:
 ---------------------------------------------------------------------
 Center     Atomic      Atomic             Coordinates (Angstroms)
 Number     Number       Type             X           Y           Z
 ---------------------------------------------------------------------
      1          8           0        0.057202   -1.184627    0.000000
      2          1           0       -0.744626   -1.752586    0.000000
      3          1           0        0.854503   -1.758924    0.000000
      4          8           0        0.057202    1.290930    0.000000
      5          1           0       -0.457098    2.128188    0.000000
      6          1           0       -0.568011    0.532896    0.000000
 ---------------------------------------------------------------------

 SCF Done:  E(RHF) =  -152.100384158     A.U. after   11 cycles
 E2 =    -0.5305133546D+00 EUMP2 =    -0.15263089751231D+03
 CCSD(T)
 CCSD(T)= -0.15265775694D+03

 The electronic state is 1-A'.
 Alpha  occ. eigenvalues --  -20.56914 -20.51658  -1.34813  -1.29193  -0.72131
 Alpha  occ. eigenvalues --   -0.68475  -0.56291  -0.52793  -0.51780  -0.46254
 Alpha virt. eigenvalues --    0.12935   0.18312   0.19297   0.26803   0.50421
 Alpha virt. eigenvalues --    0.55858   0.60424   0.61779   0.71343   0.73465
 Alpha virt. eigenvalues --    0.75531   0.82087   0.82626   0.83542   0.86680

 Mulliken charges:
               1
     1  O   -0.458065
     2  H    0.233948
     3  H    0.253449
     4  O   -0.517718
     5  H    0.220172
     6  H    0.268214
 Sum of Mulliken charges =   0.00000

 Dipole moment (field-independent basis, Debye):
    X=             -1.7884    Y=             -2.2902    Z=              0.0000  Tot=              2.9057
 Quadrupole moment (field-independent basis, Debye-Ang):
   XX=             -9.8477   YY=             -5.3546   ZZ=            -14.7130
   XY=             -2.6493   XZ=              0.0000   YZ=              0.0000

 Normal termination of Gaussian 16 at Fri Aug 26 20:32:37 2022.
