 Gaussian 16, Revision A.03,
 Gaussian 16:  ES64L-G16RevA.03 25-Dec-2016

 ------------------
 #p CCSD(T)/cc-pVTZ
 ------------------

 ------------
 H2O_H2O_1321
 ------------
 Symbolic Z-matrix:
 Charge =  0 Multiplicity = 1

                         Standard orientation:
 ---------------------------------------------------------------------
 Center     Atomic      Atomic             Coordinates (Angstroms)
 Number     Number       Type             X           Y           Z
 ---------------------------------------------------------------------
      1          8           0        0.056164   -1.445247    0.000000
      2          1           0       -0.745250   -2.013790    0.000000
      3          1           0        0.853884   -2.018962    0.000000
      4          8           0        0.056164    1.536826    0.000000
      5          1           0       -0.345106    2.433759    0.000000
      6          1           0       -0.662155    0.866360    0.000000
 ---------------------------------------------------------------------

 SCF Done:  E(RHF) =  -152.107897357     A.U. after   10 cycles
 E2 =    -0.5275142668D+00 EUMP2 =    -0.15263541162358D+03
 CCSD(T)
 CCSD(T)= -0.15266251553D+03

 The electronic state is 1-A'.
 Alpha  occ. eigenvalues --  -20.56179 -20.53276  -1.33513  -1.30579  -0.70916
 Alpha  occ. eigenvalues --   -0.68115  -0.56799  -0.54050  -0.50625  -0.47702
 Alpha virt. eigenvalues --    0.13191   0.17245   0.19698   0.24746   0.52714
 Alpha virt. eigenvalues --    0.56025   0.56858   0.58764   0.68803   0.75001
 Alpha virt. eigenvalues --    0.75577   0.77743   0.81206   0.82052   0.84322

 Mulliken charges:
               1
     1  O   -0.488359
     2  H    0.242089
     3  H    0.257925
     4  O   -0.507039
     5  H    0.233935
     6  H    0.261449
 Sum of Mulliken charges =  -0.00000

 Dipole moment (field-independent basis, Debye):
    X=             -1.8300    Y=             -1.8015    Z=              0.0000  Tot=              2.5680
 Quadrupole moment (field-independent basis, Debye-Ang):
   XX=             -9.7920   YY=             -3.2342   ZZ=            -14.7250
   XY=             -2.8076   XZ=              0.0000   YZ=              0.0000

 Normal termination of Gaussian 16 at Sat Aug 27 03:53:58 2022.
