 Gaussian 16, Revision A.03,
 Gaussian 16:  ES64L-G16RevA.03 25-Dec-2016

 ------------------
 #p CCSD(T)/cc-pVTZ
 ------------------

 -----------
 H2O_H2O_111
 -----------
 Symbolic Z-matrix:
 Charge =  0 Multiplicity = 1

                         Standard orientation:
 ---------------------------------------------------------------------
 Center     Atomic      Atomic             Coordinates (Angstroms)
 Number     Number       Type             X           Y           Z
 ---------------------------------------------------------------------
      1          8           0        0.037711   -0.841538    0.000000
      2          1           0       -0.764018   -1.409637    0.000000
      3          1           0        0.835112   -1.415695    0.000000
      4          8           0        0.037711    0.869599    0.000000
      5          1           0        0.265909    1.825335    0.000000
      6          1           0       -0.940377    0.775509    0.000000
 ---------------------------------------------------------------------

 SCF Done:  E(RHF) =  -151.973026517     A.U. after   12 cycles
 E2 =    -0.5452672764D+00 EUMP2 =    -0.15251829379295D+03
 CCSD(T)
 CCSD(T)= -0.15254379874D+03

 The electronic state is 1-A'.
 Alpha  occ. eigenvalues --  -20.52326 -20.51398  -1.36073  -1.27099  -0.72278
 Alpha  occ. eigenvalues --   -0.68818  -0.60569  -0.52237  -0.43661  -0.38431
 Alpha virt. eigenvalues --    0.14170   0.18961   0.19832   0.23649   0.53649
 Alpha virt. eigenvalues --    0.56051   0.58638   0.65353   0.72435   0.77822
 Alpha virt. eigenvalues --    0.80064   0.82393   0.82909   0.84616   0.88879

 Mulliken charges:
               1
     1  O   -0.371767
     2  H    0.174302
     3  H    0.199279
     4  O   -0.353314
     5  H    0.123044
     6  H    0.228457
 Sum of Mulliken charges =   0.00000

 Dipole moment (field-independent basis, Debye):
    X=             -1.0294    Y=             -0.6556    Z=              0.0000  Tot=              1.2204
 Quadrupole moment (field-independent basis, Debye-Ang):
   XX=             -9.0304   YY=             -8.1078   ZZ=            -14.6915
   XY=             -0.5146   XZ=              0.0000   YZ=              0.0000

 Normal termination of Gaussian 16 at Fri Aug 26 12:52:01 2022.
