 Gaussian 16, Revision A.03,
 Gaussian 16:  ES64L-G16RevA.03 25-Dec-2016

 ------------------
 #p CCSD(T)/cc-pVTZ
 ------------------

 ------------
 H2O_H2O_1436
 ------------
 Symbolic Z-matrix:
 Charge =  0 Multiplicity = 1

                         Standard orientation:
 ---------------------------------------------------------------------
 Center     Atomic      Atomic             Coordinates (Angstroms)
 Number     Number       Type             X           Y           Z
 ---------------------------------------------------------------------
      1          8           0        0.037687   -1.546154    0.000000
      2          1           0       -0.763069   -2.115624    0.000000
      3          1           0        0.836069   -2.118946    0.000000
      4          8           0        0.037687    1.574344    0.000000
      5          1           0        0.264250    2.530469    0.000000
      6          1           0       -0.940238    1.478581    0.000000
 ---------------------------------------------------------------------

 SCF Done:  E(RHF) =  -152.103926306     A.U. after   10 cycles
 E2 =    -0.5271483167D+00 EUMP2 =    -0.15263107462314D+03
 CCSD(T)
 CCSD(T)= -0.15265831099D+03

 The electronic state is 1-A'.
 Alpha  occ. eigenvalues --  -20.54578 -20.53891  -1.31882  -1.31145  -0.69308
 Alpha  occ. eigenvalues --   -0.68555  -0.55677  -0.53854  -0.49009  -0.48212
 Alpha virt. eigenvalues --    0.13995   0.16614   0.20342   0.22236   0.53211
 Alpha virt. eigenvalues --    0.57056   0.57967   0.58755   0.65358   0.76657
 Alpha virt. eigenvalues --    0.77767   0.78341   0.79388   0.82193   0.85573

 Mulliken charges:
               1
     1  O   -0.481654
     2  H    0.236254
     3  H    0.246964
     4  O   -0.480190
     5  H    0.232209
     6  H    0.246417
 Sum of Mulliken charges =  -0.00000

 Dipole moment (field-independent basis, Debye):
    X=             -1.2371    Y=             -0.5330    Z=              0.0000  Tot=              1.3470
 Quadrupole moment (field-independent basis, Debye-Ang):
   XX=             -8.7523   YY=             -0.5268   ZZ=            -14.7130
   XY=             -1.2180   XZ=              0.0000   YZ=              0.0000

 Normal termination of Gaussian 16 at Sat Aug 27 04:45:18 2022.
