 Gaussian 16, Revision A.03,
 Gaussian 16:  ES64L-G16RevA.03 25-Dec-2016

 ------------------
 #p CCSD(T)/cc-pVTZ
 ------------------

 ------------
 H2O_H2O_4101
 ------------
 Symbolic Z-matrix:
 Charge =  0 Multiplicity = 1

                         Standard orientation:
 ---------------------------------------------------------------------
 Center     Atomic      Atomic             Coordinates (Angstroms)
 Number     Number       Type             X           Y           Z
 ---------------------------------------------------------------------
      1          8           0        0.003735   -2.983996    0.000000
      2          1           0       -0.795897   -3.555042    0.000000
      3          1           0        0.803245   -3.555214    0.000000
      4          8           0        0.003735    2.984239    0.000000
      5          1           0        0.764308    3.606361    0.000000
      6          1           0       -0.831422    3.501944    0.000000
 ---------------------------------------------------------------------

 SCF Done:  E(RHF) =  -152.106691594     A.U. after   10 cycles
 E2 =    -0.5259461124D+00 EUMP2 =    -0.15263263770636D+03
 CCSD(T)
 CCSD(T)= -0.15265987282D+03

 The electronic state is 1-A'.
 Alpha  occ. eigenvalues --  -20.55133 -20.55132  -1.32429  -1.32427  -0.69836
 Alpha  occ. eigenvalues --   -0.69834  -0.55843  -0.55841  -0.49535  -0.49533
 Alpha virt. eigenvalues --    0.14457   0.14514   0.20511   0.20535   0.54727
 Alpha virt. eigenvalues --    0.54743   0.57585   0.57596   0.68323   0.68487
 Alpha virt. eigenvalues --    0.79344   0.79345   0.80788   0.80793   0.82719

 Mulliken charges:
               1
     1  O   -0.504641
     2  H    0.252221
     3  H    0.252420
     4  O   -0.504639
     5  H    0.252183
     6  H    0.252456
 Sum of Mulliken charges =  -0.00000

 Dipole moment (field-independent basis, Debye):
    X=             -0.1282    Y=             -0.0043    Z=              0.0000  Tot=              0.1283
 Quadrupole moment (field-independent basis, Debye-Ang):
   XX=             -7.8139   YY=             11.8194   ZZ=            -14.7105
   XY=             -0.2664   XZ=              0.0000   YZ=              0.0000

 Normal termination of Gaussian 16 at Sat Aug 27 05:23:15 2022.
