 Gaussian 16, Revision A.03,
 Gaussian 16:  ES64L-G16RevA.03 25-Dec-2016

 ------------------
 #p CCSD(T)/cc-pVTZ
 ------------------

 ------------
 H2O_H2O_1839
 ------------
 Symbolic Z-matrix:
 Charge =  0 Multiplicity = 1

                         Standard orientation:
 ---------------------------------------------------------------------
 Center     Atomic      Atomic             Coordinates (Angstroms)
 Number     Number       Type             X           Y           Z
 ---------------------------------------------------------------------
      1          8           0        0.045360   -1.750036    0.000000
      2          1           0       -0.755466   -2.319407    0.000000
      3          1           0        0.843672   -2.322926    0.000000
      4          8           0        0.045360    1.794526    0.000000
      5          1           0        0.081160    2.776475    0.000000
      6          1           0       -0.895127    1.509936    0.000000
 ---------------------------------------------------------------------

 SCF Done:  E(RHF) =  -152.106045451     A.U. after   10 cycles
 E2 =    -0.5265588991D+00 EUMP2 =    -0.15263260435027D+03
 CCSD(T)
 CCSD(T)= -0.15265980814D+03

 The electronic state is 1-A'.
 Alpha  occ. eigenvalues --  -20.55095 -20.54195  -1.32371  -1.31461  -0.69791
 Alpha  occ. eigenvalues --   -0.68846  -0.55799  -0.54738  -0.49480  -0.48571
 Alpha virt. eigenvalues --    0.13675   0.16240   0.20222   0.22112   0.53465
 Alpha virt. eigenvalues --    0.55083   0.57611   0.58553   0.64041   0.76649
 Alpha virt. eigenvalues --    0.78576   0.78615   0.80038   0.80950   0.85189

 Mulliken charges:
               1
     1  O   -0.492817
     2  H    0.242626
     3  H    0.252119
     4  O   -0.495397
     5  H    0.239774
     6  H    0.253694
 Sum of Mulliken charges =  -0.00000

 Dipole moment (field-independent basis, Debye):
    X=             -1.5145    Y=             -0.8265    Z=              0.0000  Tot=              1.7253
 Quadrupole moment (field-independent basis, Debye-Ang):
   XX=             -9.1184   YY=              0.4823   ZZ=            -14.7132
   XY=             -2.0136   XZ=              0.0000   YZ=              0.0000

 Normal termination of Gaussian 16 at Sat Aug 27 07:06:14 2022.
