 Gaussian 16, Revision A.03,
 Gaussian 16:  ES64L-G16RevA.03 25-Dec-2016

 ------------------
 #p CCSD(T)/cc-pVTZ
 ------------------

 ------------
 H2O_H2O_3805
 ------------
 Symbolic Z-matrix:
 Charge =  0 Multiplicity = 1

                         Standard orientation:
 ---------------------------------------------------------------------
 Center     Atomic      Atomic             Coordinates (Angstroms)
 Number     Number       Type             X           Y           Z
 ---------------------------------------------------------------------
      1          8           0        0.018360   -2.821296    0.000000
      2          1           0       -0.781530   -3.391981    0.000000
      3          1           0        0.817611   -3.392876    0.000000
      4          8           0        0.018360    2.827338    0.000000
      5          1           0        0.592360    3.624852    0.000000
      6          1           0       -0.922203    3.111672    0.000000
 ---------------------------------------------------------------------

 SCF Done:  E(RHF) =  -152.106613665     A.U. after   10 cycles
 E2 =    -0.5259595386D+00 EUMP2 =    -0.15263257320336D+03
 CCSD(T)
 CCSD(T)= -0.15265980959D+03

 The electronic state is 1-A'.
 Alpha  occ. eigenvalues --  -20.55113 -20.55070  -1.32408  -1.32364  -0.69816
 Alpha  occ. eigenvalues --   -0.69771  -0.55818  -0.55774  -0.49514  -0.49470
 Alpha virt. eigenvalues --    0.14449   0.14589   0.20518   0.20590   0.54745
 Alpha virt. eigenvalues --    0.54812   0.57600   0.57651   0.68238   0.68676
 Alpha virt. eigenvalues --    0.79364   0.79407   0.80810   0.80862   0.82742

 Mulliken charges:
               1
     1  O   -0.504190
     2  H    0.251523
     3  H    0.252667
     4  O   -0.504128
     5  H    0.251275
     6  H    0.252853
 Sum of Mulliken charges =  -0.00000

 Dipole moment (field-independent basis, Debye):
    X=             -0.6295    Y=             -0.1059    Z=              0.0000  Tot=              0.6383
 Quadrupole moment (field-independent basis, Debye-Ang):
   XX=             -8.0189   YY=             10.1597   ZZ=            -14.7104
   XY=             -1.2432   XZ=              0.0000   YZ=              0.0000

 Normal termination of Gaussian 16 at Sat Aug 27 03:27:48 2022.
