 Gaussian 16, Revision A.03,
 Gaussian 16:  ES64L-G16RevA.03 25-Dec-2016

 ------------------
 #p CCSD(T)/cc-pVTZ
 ------------------

 ------------
 H2O_H2O_2453
 ------------
 Symbolic Z-matrix:
 Charge =  0 Multiplicity = 1

                         Standard orientation:
 ---------------------------------------------------------------------
 Center     Atomic      Atomic             Coordinates (Angstroms)
 Number     Number       Type             X           Y           Z
 ---------------------------------------------------------------------
      1          8           0        0.011143   -2.105411    0.000000
      2          1           0       -0.788688   -2.676179    0.000000
      3          1           0        0.810454   -2.676907    0.000000
      4          8           0        0.011143    2.107596    0.000000
      5          1           0        0.684254    2.823437    0.000000
      6          1           0       -0.884303    2.512173    0.000000
 ---------------------------------------------------------------------

 SCF Done:  E(RHF) =  -152.105443182     A.U. after   10 cycles
 E2 =    -0.5261945158D+00 EUMP2 =    -0.15263163769795D+03
 CCSD(T)
 CCSD(T)= -0.15265888679D+03

 The electronic state is 1-A'.
 Alpha  occ. eigenvalues --  -20.54680 -20.54651  -1.31968  -1.31937  -0.69383
 Alpha  occ. eigenvalues --   -0.69351  -0.55407  -0.55180  -0.49071  -0.49031
 Alpha virt. eigenvalues --    0.14248   0.15419   0.20623   0.21012   0.54574
 Alpha virt. eigenvalues --    0.55781   0.57854   0.58056   0.63796   0.73579
 Alpha virt. eigenvalues --    0.79597   0.80037   0.81067   0.81353   0.81887

 Mulliken charges:
               1
     1  O   -0.496726
     2  H    0.247599
     3  H    0.249144
     4  O   -0.496649
     5  H    0.247379
     6  H    0.249254
 Sum of Mulliken charges =  -0.00000

 Dipole moment (field-independent basis, Debye):
    X=             -0.3778    Y=             -0.0392    Z=              0.0000  Tot=              0.3799
 Quadrupole moment (field-independent basis, Debye-Ang):
   XX=             -7.9067   YY=              4.6465   ZZ=            -14.7095
   XY=             -0.4716   XZ=              0.0000   YZ=              0.0000

 Normal termination of Gaussian 16 at Sat Aug 27 10:38:39 2022.
