 Gaussian 16, Revision A.03,
 Gaussian 16:  ES64L-G16RevA.03 25-Dec-2016

 ------------------
 #p CCSD(T)/cc-pVTZ
 ------------------

 -----------
 H2O_H2O_496
 -----------
 Symbolic Z-matrix:
 Charge =  0 Multiplicity = 1

                         Standard orientation:
 ---------------------------------------------------------------------
 Center     Atomic      Atomic             Coordinates (Angstroms)
 Number     Number       Type             X           Y           Z
 ---------------------------------------------------------------------
      1          8           0        0.056226   -1.006561    0.000000
      2          1           0       -0.745954   -1.574023    0.000000
      3          1           0        0.853171   -1.581351    0.000000
      4          8           0        0.056226    1.097989    0.000000
      5          1           0       -0.343835    1.995462    0.000000
      6          1           0       -0.662997    0.428492    0.000000
 ---------------------------------------------------------------------

 SCF Done:  E(RHF) =  -152.068252252     A.U. after   11 cycles
 E2 =    -0.5351914706D+00 EUMP2 =    -0.15260344372241D+03
 CCSD(T)
 CCSD(T)= -0.15262998738D+03

 The electronic state is 1-A'.
 Alpha  occ. eigenvalues --  -20.56029 -20.50615  -1.35446  -1.28183  -0.72922
 Alpha  occ. eigenvalues --   -0.69616  -0.53504  -0.51998  -0.51304  -0.45140
 Alpha virt. eigenvalues --    0.13168   0.18758   0.19366   0.26087   0.50376
 Alpha virt. eigenvalues --    0.55595   0.61618   0.64618   0.72129   0.74565
 Alpha virt. eigenvalues --    0.78499   0.81592   0.83771   0.85011   0.87562

 Mulliken charges:
               1
     1  O   -0.408613
     2  H    0.208555
     3  H    0.238765
     4  O   -0.487281
     5  H    0.190936
     6  H    0.257638
 Sum of Mulliken charges =  -0.00000

 Dipole moment (field-independent basis, Debye):
    X=             -1.6576    Y=             -2.0504    Z=              0.0000  Tot=              2.6366
 Quadrupole moment (field-independent basis, Debye-Ang):
   XX=             -9.8035   YY=             -6.2513   ZZ=            -14.6771
   XY=             -1.9837   XZ=              0.0000   YZ=              0.0000

 Normal termination of Gaussian 16 at Fri Aug 26 16:59:54 2022.
