 Gaussian 16, Revision A.03,
 Gaussian 16:  ES64L-G16RevA.03 25-Dec-2016

 ------------------
 #p CCSD(T)/cc-pVTZ
 ------------------

 ------------
 H2O_H2O_3913
 ------------
 Symbolic Z-matrix:
 Charge =  0 Multiplicity = 1

                         Standard orientation:
 ---------------------------------------------------------------------
 Center     Atomic      Atomic             Coordinates (Angstroms)
 Number     Number       Type             X           Y           Z
 ---------------------------------------------------------------------
      1          8           0        0.042965   -2.856688    0.000000
      2          1           0       -0.757339   -3.426792    0.000000
      3          1           0        0.841801   -3.428847    0.000000
      4          8           0        0.042965    2.895489    0.000000
      5          1           0        0.142016    3.873086    0.000000
      6          1           0       -0.913917    2.672143    0.000000
 ---------------------------------------------------------------------

 SCF Done:  E(RHF) =  -152.106999687     A.U. after   10 cycles
 E2 =    -0.5259257485D+00 EUMP2 =    -0.15263292543546D+03
 CCSD(T)
 CCSD(T)= -0.15266015357D+03

 The electronic state is 1-A'.
 Alpha  occ. eigenvalues --  -20.55345 -20.55072  -1.32642  -1.32367  -0.70049
 Alpha  occ. eigenvalues --   -0.69768  -0.56070  -0.55796  -0.49750  -0.49477
 Alpha virt. eigenvalues --    0.14257   0.14605   0.20341   0.20650   0.54511
 Alpha virt. eigenvalues --    0.54814   0.57398   0.57675   0.68033   0.68552
 Alpha virt. eigenvalues --    0.79129   0.79398   0.80567   0.80858   0.82513

 Mulliken charges:
               1
     1  O   -0.506488
     2  H    0.251976
     3  H    0.254515
     4  O   -0.506235
     5  H    0.251108
     6  H    0.255125
 Sum of Mulliken charges =  -0.00000

 Dipole moment (field-independent basis, Debye):
    X=             -1.4740    Y=             -0.6800    Z=              0.0000  Tot=              1.6233
 Quadrupole moment (field-independent basis, Debye-Ang):
   XX=             -8.9655   YY=              8.1729   ZZ=            -14.7112
   XY=             -3.4285   XZ=              0.0000   YZ=              0.0000

 Normal termination of Gaussian 16 at Sat Aug 27 04:15:30 2022.
