 Gaussian 16, Revision A.03,
 Gaussian 16:  ES64L-G16RevA.03 25-Dec-2016

 ------------------
 #p CCSD(T)/cc-pVTZ
 ------------------

 -----------
 H2O_H2O_725
 -----------
 Symbolic Z-matrix:
 Charge =  0 Multiplicity = 1

                         Standard orientation:
 ---------------------------------------------------------------------
 Center     Atomic      Atomic             Coordinates (Angstroms)
 Number     Number       Type             X           Y           Z
 ---------------------------------------------------------------------
      1          8           0       -0.000000   -0.000000    1.189180
      2          1           0       -0.000000   -0.799571    1.760312
      3          1           0        0.000000    0.799571    1.760312
      4          8           0        0.000000    0.000000   -1.189180
      5          1           0        0.000000    0.799571   -1.760312
      6          1           0        0.000000   -0.799571   -1.760312
 ---------------------------------------------------------------------

 SCF Done:  E(RHF) =  -152.086934118     A.U. after   10 cycles
 E2 =    -0.5300615332D+00 EUMP2 =    -0.15261699565136D+03
 CCSD(T)
 CCSD(T)= -0.15264425966D+03

 The electronic state is 1-AG.
 Alpha  occ. eigenvalues --  -20.52788 -20.52787  -1.31035  -1.29804  -0.68230
 Alpha  occ. eigenvalues --   -0.67429  -0.57666  -0.48865  -0.48348  -0.46489
 Alpha virt. eigenvalues --    0.14545   0.17727   0.20580   0.22438   0.50204
 Alpha virt. eigenvalues --    0.58954   0.58971   0.64017   0.72927   0.76750
 Alpha virt. eigenvalues --    0.77508   0.80143   0.84193   0.86590   0.86716

 Mulliken charges:
               1
     1  O   -0.454777
     2  H    0.227388
     3  H    0.227388
     4  O   -0.454777
     5  H    0.227388
     6  H    0.227388
 Sum of Mulliken charges =  -0.00000

 Dipole moment (field-independent basis, Debye):
    X=              0.0000    Y=             -0.0000    Z=              0.0000  Tot=              0.0000
 Quadrupole moment (field-independent basis, Debye-Ang):
   XX=            -14.7318   YY=             -8.0138   ZZ=             -3.4901
   XY=             -0.0000   XZ=             -0.0000   YZ=              0.0000

 MP4DQ=-152.6254048\MP4SDQ=-152.6286913\CCSD=-152.6280226\CCSD(T)=-152.
 Normal termination of Gaussian 16 at Fri Aug 26 19:27:35 2022.
