 Gaussian 16, Revision A.03,
 Gaussian 16:  ES64L-G16RevA.03 25-Dec-2016

 ------------------
 #p CCSD(T)/cc-pVTZ
 ------------------

 ------------
 H2O_H2O_4038
 ------------
 Symbolic Z-matrix:
 Charge =  0 Multiplicity = 1

                         Standard orientation:
 ---------------------------------------------------------------------
 Center     Atomic      Atomic             Coordinates (Angstroms)
 Number     Number       Type             X           Y           Z
 ---------------------------------------------------------------------
      1          8           0        0.042964   -2.923166    0.000000
      2          1           0       -0.757323   -3.493293    0.000000
      3          1           0        0.841817   -3.495302    0.000000
      4          8           0        0.042964    2.961970    0.000000
      5          1           0        0.141987    3.939569    0.000000
      6          1           0       -0.913911    2.738596    0.000000
 ---------------------------------------------------------------------

 SCF Done:  E(RHF) =  -152.107030983     A.U. after   10 cycles
 E2 =    -0.5259200291D+00 EUMP2 =    -0.15263295101207D+03
 CCSD(T)
 CCSD(T)= -0.15266017867D+03

 The electronic state is 1-A'.
 Alpha  occ. eigenvalues --  -20.55358 -20.55098  -1.32655  -1.32393  -0.70062
 Alpha  occ. eigenvalues --   -0.69795  -0.56085  -0.55823  -0.49764  -0.49503
 Alpha virt. eigenvalues --    0.14261   0.14570   0.20336   0.20624   0.54500
 Alpha virt. eigenvalues --    0.54786   0.57388   0.57651   0.68062   0.68474
 Alpha virt. eigenvalues --    0.79115   0.79372   0.80553   0.80833   0.82491

 Mulliken charges:
               1
     1  O   -0.506669
     2  H    0.252146
     3  H    0.254524
     4  O   -0.506440
     5  H    0.251330
     6  H    0.255108
 Sum of Mulliken charges =  -0.00000

 Dipole moment (field-independent basis, Debye):
    X=             -1.4747    Y=             -0.6794    Z=              0.0000  Tot=              1.6237
 Quadrupole moment (field-independent basis, Debye-Ang):
   XX=             -8.9653   YY=              8.6157   ZZ=            -14.7113
   XY=             -3.5257   XZ=              0.0000   YZ=              0.0000

 496324\MP4DQ=-152.6420754\MP4SDQ=-152.645134\CCSD=-152.644546\CCSD(T)=
 Normal termination of Gaussian 16 at Sat Aug 27 05:01:59 2022.
