 Gaussian 16, Revision A.03,
 Gaussian 16:  ES64L-G16RevA.03 25-Dec-2016

 ------------------
 #p CCSD(T)/cc-pVTZ
 ------------------

 -----------
 H2O_H2O_691
 -----------
 Symbolic Z-matrix:
 Charge =  0 Multiplicity = 1

                         Standard orientation:
 ---------------------------------------------------------------------
 Center     Atomic      Atomic             Coordinates (Angstroms)
 Number     Number       Type             X           Y           Z
 ---------------------------------------------------------------------
      1          8           0        0.049566   -1.131763    0.000000
      2          1           0       -0.752096   -1.699956    0.000000
      3          1           0        0.847035   -1.705826    0.000000
      4          8           0        0.049566    1.188513    0.000000
      5          1           0       -0.041673    2.166869    0.000000
      6          1           0       -0.846321    0.784915    0.000000
 ---------------------------------------------------------------------

 SCF Done:  E(RHF) =  -152.090650196     A.U. after   11 cycles
 E2 =    -0.5308269252D+00 EUMP2 =    -0.15262147712102D+03
 CCSD(T)
 CCSD(T)= -0.15264856877D+03

 The electronic state is 1-A'.
 Alpha  occ. eigenvalues --  -20.54672 -20.52450  -1.32772  -1.29643  -0.70124
 Alpha  occ. eigenvalues --   -0.68012  -0.56382  -0.51213  -0.49878  -0.46562
 Alpha virt. eigenvalues --    0.13789   0.17830   0.19968   0.24018   0.52698
 Alpha virt. eigenvalues --    0.57367   0.59055   0.61188   0.71318   0.74957
 Alpha virt. eigenvalues --    0.78570   0.82438   0.83109   0.84917   0.87644

 Mulliken charges:
               1
     1  O   -0.458628
     2  H    0.223336
     3  H    0.242688
     4  O   -0.457865
     5  H    0.202637
     6  H    0.247832
 Sum of Mulliken charges =   0.00000

 Dipole moment (field-independent basis, Debye):
    X=             -1.5137    Y=             -1.1410    Z=              0.0000  Tot=              1.8956
 Quadrupole moment (field-independent basis, Debye-Ang):
   XX=             -9.4373   YY=             -4.4266   ZZ=            -14.7225
   XY=             -1.4054   XZ=              0.0000   YZ=              0.0000

 Normal termination of Gaussian 16 at Fri Aug 26 19:07:58 2022.
