 Gaussian 16, Revision A.03,
 Gaussian 16:  ES64L-G16RevA.03 25-Dec-2016

 ------------------
 #p CCSD(T)/cc-pVTZ
 ------------------

 ------------
 H2O_H2O_4355
 ------------
 Symbolic Z-matrix:
 Charge =  0 Multiplicity = 1

                         Standard orientation:
 ---------------------------------------------------------------------
 Center     Atomic      Atomic             Coordinates (Angstroms)
 Number     Number       Type             X           Y           Z
 ---------------------------------------------------------------------
      1          8           0        0.018360   -3.113805    0.000000
      2          1           0       -0.781501   -3.684531    0.000000
      3          1           0        0.817641   -3.685342    0.000000
      4          8           0        0.018360    3.119848    0.000000
      5          1           0        0.592318    3.917393    0.000000
      6          1           0       -0.922218    3.404134    0.000000
 ---------------------------------------------------------------------

 SCF Done:  E(RHF) =  -152.106834361     A.U. after   10 cycles
 E2 =    -0.5259300662D+00 EUMP2 =    -0.15263276442679D+03
 CCSD(T)
 CCSD(T)= -0.15265999672D+03

 The electronic state is 1-A'.
 Alpha  occ. eigenvalues --  -20.55208 -20.55172  -1.32504  -1.32468  -0.69911
 Alpha  occ. eigenvalues --   -0.69874  -0.55925  -0.55889  -0.49611  -0.49575
 Alpha virt. eigenvalues --    0.14414   0.14465   0.20465   0.20506   0.54657
 Alpha virt. eigenvalues --    0.54698   0.57525   0.57562   0.68286   0.68370
 Alpha virt. eigenvalues --    0.79268   0.79303   0.80711   0.80751   0.82639

 Mulliken charges:
               1
     1  O   -0.505483
     2  H    0.252309
     3  H    0.253174
     4  O   -0.505445
     5  H    0.252109
     6  H    0.253336
 Sum of Mulliken charges =  -0.00000

 Dipole moment (field-independent basis, Debye):
    X=             -0.6307    Y=             -0.1055    Z=              0.0000  Tot=              0.6394
 Quadrupole moment (field-independent basis, Debye-Ang):
   XX=             -8.0154   YY=             12.4447   ZZ=            -14.7107
   XY=             -1.4259   XZ=              0.0000   YZ=              0.0000

 Normal termination of Gaussian 16 at Sat Aug 27 06:50:48 2022.
