 Gaussian 16, Revision A.03,
 Gaussian 16:  ES64L-G16RevA.03 25-Dec-2016

 ------------------
 #p CCSD(T)/cc-pVTZ
 ------------------

 ------------
 H2O_H2O_1570
 ------------
 Symbolic Z-matrix:
 Charge =  0 Multiplicity = 1

                         Standard orientation:
 ---------------------------------------------------------------------
 Center     Atomic      Atomic             Coordinates (Angstroms)
 Number     Number       Type             X           Y           Z
 ---------------------------------------------------------------------
      1          8           0        0.055291   -1.582138    0.000000
      2          1           0       -0.745947   -2.150930    0.000000
      3          1           0        0.853188   -2.155605    0.000000
      4          8           0        0.055291    1.666478    0.000000
      5          1           0       -0.286745    2.587629    0.000000
      6          1           0       -0.705147    1.044191    0.000000
 ---------------------------------------------------------------------

 SCF Done:  E(RHF) =  -152.107959550     A.U. after   10 cycles
 E2 =    -0.5269017975D+00 EUMP2 =    -0.15263486134732D+03
 CCSD(T)
 CCSD(T)= -0.15266200019D+03

 The electronic state is 1-A'.
 Alpha  occ. eigenvalues --  -20.55920 -20.53714  -1.33203  -1.30997  -0.70615
 Alpha  occ. eigenvalues --   -0.68396  -0.56602  -0.54437  -0.50320  -0.48124
 Alpha virt. eigenvalues --    0.13266   0.16819   0.19819   0.23896   0.53606
 Alpha virt. eigenvalues --    0.55156   0.56938   0.58276   0.66695   0.75896
 Alpha virt. eigenvalues --    0.76659   0.77015   0.79431   0.81495   0.84542

 Mulliken charges:
               1
     1  O   -0.492193
     2  H    0.243231
     3  H    0.256447
     4  O   -0.505556
     5  H    0.237959
     6  H    0.260112
 Sum of Mulliken charges =  -0.00000

 Dipole moment (field-independent basis, Debye):
    X=             -1.8261    Y=             -1.6155    Z=              0.0000  Tot=              2.4381
 Quadrupole moment (field-independent basis, Debye-Ang):
   XX=             -9.7315   YY=             -2.1606   ZZ=            -14.7207
   XY=             -2.8779   XZ=              0.0000   YZ=              0.0000

 Normal termination of Gaussian 16 at Sat Aug 27 05:31:50 2022.
