 Gaussian 16, Revision A.03,
 Gaussian 16:  ES64L-G16RevA.03 25-Dec-2016

 ------------------
 #p CCSD(T)/cc-pVTZ
 ------------------

 ------------
 H2O_H2O_4415
 ------------
 Symbolic Z-matrix:
 Charge =  0 Multiplicity = 1

                         Standard orientation:
 ---------------------------------------------------------------------
 Center     Atomic      Atomic             Coordinates (Angstroms)
 Number     Number       Type             X           Y           Z
 ---------------------------------------------------------------------
      1          8           0        0.047521   -3.116176    0.000000
      2          1           0       -0.752793   -3.686267    0.000000
      3          1           0        0.846348   -3.688348    0.000000
      4          8           0        0.047521    3.166818    0.000000
      5          1           0        0.018138    4.148980    0.000000
      6          1           0       -0.872028    2.820499    0.000000
 ---------------------------------------------------------------------

 SCF Done:  E(RHF) =  -152.107206815     A.U. after   10 cycles
 E2 =    -0.5258981705D+00 EUMP2 =    -0.15263310498533D+03
 CCSD(T)
 CCSD(T)= -0.15266032929D+03

 The electronic state is 1-A'.
 Alpha  occ. eigenvalues --  -20.55457 -20.55160  -1.32755  -1.32457  -0.70162
 Alpha  occ. eigenvalues --   -0.69858  -0.56193  -0.55894  -0.49865  -0.49568
 Alpha virt. eigenvalues --    0.14195   0.14505   0.20265   0.20582   0.54402
 Alpha virt. eigenvalues --    0.54719   0.57303   0.57601   0.67997   0.68330
 Alpha virt. eigenvalues --    0.79014   0.79308   0.80449   0.80769   0.82378

 Mulliken charges:
               1
     1  O   -0.507699
     2  H    0.252768
     3  H    0.254932
     4  O   -0.507493
     5  H    0.251923
     6  H    0.255570
 Sum of Mulliken charges =  -0.00000

 Dipole moment (field-independent basis, Debye):
    X=             -1.6330    Y=             -0.8847    Z=              0.0000  Tot=              1.8573
 Quadrupole moment (field-independent basis, Debye-Ang):
   XX=             -9.2244   YY=              8.8798   ZZ=            -14.7116
   XY=             -4.3992   XZ=              0.0000   YZ=              0.0000

 6497855\MP4DQ=-152.6422305\MP4SDQ=-152.6452873\CCSD=-152.6447\CCSD(T)=
 Normal termination of Gaussian 16 at Sat Aug 27 07:11:44 2022.
