 Gaussian 16, Revision A.03,
 Gaussian 16:  ES64L-G16RevA.03 25-Dec-2016

 ------------------
 #p CCSD(T)/cc-pVTZ
 ------------------

 ------------
 H2O_H2O_4895
 ------------
 Symbolic Z-matrix:
 Charge =  0 Multiplicity = 1

                         Standard orientation:
 ---------------------------------------------------------------------
 Center     Atomic      Atomic             Coordinates (Angstroms)
 Number     Number       Type             X           Y           Z
 ---------------------------------------------------------------------
      1          8           0        0.055226   -3.350406    0.000000
      2          1           0       -0.745143   -3.920419    0.000000
      3          1           0        0.853997   -3.922657    0.000000
      4          8           0        0.055226    3.434914    0.000000
      5          1           0       -0.288212    4.355543    0.000000
      6          1           0       -0.704262    2.811471    0.000000
 ---------------------------------------------------------------------

 SCF Done:  E(RHF) =  -152.107479447     A.U. after   10 cycles
 E2 =    -0.5258683148D+00 EUMP2 =    -0.15263334776194D+03
 CCSD(T)
 CCSD(T)= -0.15266056664D+03

 The electronic state is 1-A'.
 Alpha  occ. eigenvalues --  -20.55638 -20.55218  -1.32937  -1.32516  -0.70343
 Alpha  occ. eigenvalues --   -0.69917  -0.56388  -0.55964  -0.50049  -0.49630
 Alpha virt. eigenvalues --    0.14044   0.14465   0.20123   0.20567   0.54218
 Alpha virt. eigenvalues --    0.54654   0.57143   0.57563   0.67794   0.68230
 Alpha virt. eigenvalues --    0.78830   0.79244   0.80260   0.80705   0.82184

 Mulliken charges:
               1
     1  O   -0.509305
     2  H    0.253685
     3  H    0.255620
     4  O   -0.509080
     5  H    0.252648
     6  H    0.256432
 Sum of Mulliken charges =  -0.00000

 Dipole moment (field-independent basis, Debye):
    X=             -1.9000    Y=             -1.4733    Z=              0.0000  Tot=              2.4042
 Quadrupole moment (field-independent basis, Debye-Ang):
   XX=             -9.7245   YY=              6.8679   ZZ=            -14.7121
   XY=             -6.1764   XZ=              0.0000   YZ=              0.0000

 Normal termination of Gaussian 16 at Sat Aug 27 09:56:53 2022.
