 Gaussian 16, Revision A.03,
 Gaussian 16:  ES64L-G16RevA.03 25-Dec-2016

 ------------------
 #p CCSD(T)/cc-pVTZ
 ------------------

 -----------
 H2O_H2O_399
 -----------
 Symbolic Z-matrix:
 Charge =  0 Multiplicity = 1

                         Standard orientation:
 ---------------------------------------------------------------------
 Center     Atomic      Atomic             Coordinates (Angstroms)
 Number     Number       Type             X           Y           Z
 ---------------------------------------------------------------------
      1          8           0        0.057394   -0.941302    0.000000
      2          1           0       -0.744981   -1.508489    0.000000
      3          1           0        0.854142   -1.516365    0.000000
      4          8           0        0.057394    1.054964    0.000000
      5          1           0       -0.509793    1.857339    0.000000
      6          1           0       -0.517670    0.258216    0.000000
 ---------------------------------------------------------------------

 SCF Done:  E(RHF) =  -152.038449463     A.U. after   11 cycles
 E2 =    -0.5388651237D+00 EUMP2 =    -0.15257731458671D+03
 CCSD(T)
 CCSD(T)= -0.15260308668D+03

 The electronic state is 1-A'.
 Alpha  occ. eigenvalues --  -20.57661 -20.48136  -1.38619  -1.26608  -0.76225
 Alpha  occ. eigenvalues --   -0.71834  -0.54307  -0.51253  -0.49735  -0.43480
 Alpha virt. eigenvalues --    0.12452   0.18261   0.19951   0.28024   0.48573
 Alpha virt. eigenvalues --    0.53950   0.63081   0.68777   0.72321   0.74350
 Alpha virt. eigenvalues --    0.76999   0.79659   0.83709   0.85612   0.87848

 Mulliken charges:
               1
     1  O   -0.354031
     2  H    0.203938
     3  H    0.239286
     4  O   -0.544849
     5  H    0.185015
     6  H    0.270642
 Sum of Mulliken charges =  -0.00000

 Dipole moment (field-independent basis, Debye):
    X=             -1.6452    Y=             -2.8976    Z=              0.0000  Tot=              3.3321
 Quadrupole moment (field-independent basis, Debye-Ang):
   XX=             -9.8142   YY=             -7.4629   ZZ=            -14.6136
   XY=             -2.3041   XZ=              0.0000   YZ=              0.0000

 Normal termination of Gaussian 16 at Fri Aug 26 16:05:47 2022.
