 Gaussian 16, Revision A.03,
 Gaussian 16:  ES64L-G16RevA.03 25-Dec-2016

 ------------------
 #p CCSD(T)/cc-pVTZ
 ------------------

 ------------
 H2O_H2O_3742
 ------------
 Symbolic Z-matrix:
 Charge =  0 Multiplicity = 1

                         Standard orientation:
 ---------------------------------------------------------------------
 Center     Atomic      Atomic             Coordinates (Angstroms)
 Number     Number       Type             X           Y           Z
 ---------------------------------------------------------------------
      1          8           0        0.051274   -2.750180    0.000000
      2          1           0       -0.749202   -3.320043    0.000000
      3          1           0        0.849938   -3.322578    0.000000
      4          8           0        0.051274    2.813722    0.000000
      5          1           0       -0.105780    3.783692    0.000000
      6          1           0       -0.815336    2.350586    0.000000
 ---------------------------------------------------------------------

 SCF Done:  E(RHF) =  -152.107247617     A.U. after   10 cycles
 E2 =    -0.5259116990D+00 EUMP2 =    -0.15263315931587D+03
 CCSD(T)
 CCSD(T)= -0.15266038149D+03

 The electronic state is 1-A'.
 Alpha  occ. eigenvalues --  -20.55497 -20.55015  -1.32795  -1.32310  -0.70202
 Alpha  occ. eigenvalues --   -0.69707  -0.56235  -0.55749  -0.49905  -0.49423
 Alpha virt. eigenvalues --    0.14068   0.14720   0.20214   0.20774   0.54347
 Alpha virt. eigenvalues --    0.54868   0.57264   0.57740   0.67727   0.68726
 Alpha virt. eigenvalues --    0.78975   0.79448   0.80401   0.80851   0.82472

 Mulliken charges:
               1
     1  O   -0.507958
     2  H    0.252338
     3  H    0.255635
     4  O   -0.507568
     5  H    0.250895
     6  H    0.256657
 Sum of Mulliken charges =  -0.00000

 Dipole moment (field-independent basis, Debye):
    X=             -1.7582    Y=             -1.1164    Z=              0.0000  Tot=              2.0827
 Quadrupole moment (field-independent basis, Debye-Ang):
   XX=             -9.4576   YY=              5.5954   ZZ=            -14.7119
   XY=             -4.3269   XZ=              0.0000   YZ=              0.0000

 Normal termination of Gaussian 16 at Sat Aug 27 02:55:03 2022.
