 Gaussian 16, Revision A.03,
 Gaussian 16:  ES64L-G16RevA.03 25-Dec-2016

 ------------------
 #p CCSD(T)/cc-pVTZ
 ------------------

 ------------
 H2O_H2O_3897
 ------------
 Symbolic Z-matrix:
 Charge =  0 Multiplicity = 1

                         Standard orientation:
 ---------------------------------------------------------------------
 Center     Atomic      Atomic             Coordinates (Angstroms)
 Number     Number       Type             X           Y           Z
 ---------------------------------------------------------------------
      1          8           0        0.056709   -2.810632    0.000000
      2          1           0       -0.743834   -3.380401    0.000000
      3          1           0        0.855306   -3.383126    0.000000
      4          8           0        0.056709    2.909756    0.000000
      5          1           0       -0.403693    3.777821    0.000000
      6          1           0       -0.615125    2.192717    0.000000
 ---------------------------------------------------------------------

 SCF Done:  E(RHF) =  -152.107659759     A.U. after   10 cycles
 E2 =    -0.5258728688D+00 EUMP2 =    -0.15263353262766D+03
 CCSD(T)
 CCSD(T)= -0.15266074606D+03

 The electronic state is 1-A'.
 Alpha  occ. eigenvalues --  -20.55733 -20.55023  -1.33032  -1.32322  -0.70438
 Alpha  occ. eigenvalues --   -0.69717  -0.56491  -0.55774  -0.50146  -0.49438
 Alpha virt. eigenvalues --    0.13859   0.14739   0.20042   0.20840   0.54112
 Alpha virt. eigenvalues --    0.54840   0.57060   0.57750   0.67466   0.68633
 Alpha virt. eigenvalues --    0.78736   0.79429   0.80154   0.80712   0.82402

 Mulliken charges:
               1
     1  O   -0.510372
     2  H    0.253600
     3  H    0.256800
     4  O   -0.509865
     5  H    0.251593
     6  H    0.258244
 Sum of Mulliken charges =  -0.00000

 Dipole moment (field-independent basis, Debye):
    X=             -1.9461    Y=             -1.7406    Z=              0.0000  Tot=              2.6110
 Quadrupole moment (field-independent basis, Debye-Ang):
   XX=             -9.8274   YY=              2.8054   ZZ=            -14.7128
   XY=             -5.5710   XZ=              0.0000   YZ=              0.0000

 Normal termination of Gaussian 16 at Sat Aug 27 04:08:44 2022.
