 Gaussian 16, Revision A.03,
 Gaussian 16:  ES64L-G16RevA.03 25-Dec-2016

 ------------------
 #p CCSD(T)/cc-pVTZ
 ------------------

 ------------
 H2O_H2O_3915
 ------------
 Symbolic Z-matrix:
 Charge =  0 Multiplicity = 1

                         Standard orientation:
 ---------------------------------------------------------------------
 Center     Atomic      Atomic             Coordinates (Angstroms)
 Number     Number       Type             X           Y           Z
 ---------------------------------------------------------------------
      1          8           0        0.047524   -2.850264    0.000000
      2          1           0       -0.752858   -3.420258    0.000000
      3          1           0        0.846282   -3.422532    0.000000
      4          8           0        0.047524    2.900894    0.000000
      5          1           0        0.018259    3.883060    0.000000
      6          1           0       -0.872066    2.554685    0.000000
 ---------------------------------------------------------------------

 SCF Done:  E(RHF) =  -152.107126152     A.U. after   10 cycles
 E2 =    -0.5259154633D+00 EUMP2 =    -0.15263304161552D+03
 CCSD(T)
 CCSD(T)= -0.15266026697D+03

 The electronic state is 1-A'.
 Alpha  occ. eigenvalues --  -20.55422 -20.55065  -1.32719  -1.32360  -0.70126
 Alpha  occ. eigenvalues --   -0.69759  -0.56154  -0.55794  -0.49829  -0.49471
 Alpha virt. eigenvalues --    0.14183   0.14627   0.20281   0.20684   0.54432
 Alpha virt. eigenvalues --    0.54822   0.57331   0.57690   0.67933   0.68555
 Alpha virt. eigenvalues --    0.79051   0.79403   0.80485   0.80857   0.82450

 Mulliken charges:
               1
     1  O   -0.507240
     2  H    0.252223
     3  H    0.255021
     4  O   -0.506942
     5  H    0.251144
     6  H    0.255794
 Sum of Mulliken charges =   0.00000

 Dipole moment (field-independent basis, Debye):
    X=             -1.6306    Y=             -0.8877    Z=              0.0000  Tot=              1.8566
 Quadrupole moment (field-independent basis, Debye-Ang):
   XX=             -9.2247   YY=              7.2224   ZZ=            -14.7115
   XY=             -3.9686   XZ=              0.0000   YZ=              0.0000

 Normal termination of Gaussian 16 at Sat Aug 27 04:16:26 2022.
