 Gaussian 16, Revision A.03,
 Gaussian 16:  ES64L-G16RevA.03 25-Dec-2016

 ------------------
 #p CCSD(T)/cc-pVTZ
 ------------------

 -----------
 H2O_H2O_977
 -----------
 Symbolic Z-matrix:
 Charge =  0 Multiplicity = 1

                         Standard orientation:
 ---------------------------------------------------------------------
 Center     Atomic      Atomic             Coordinates (Angstroms)
 Number     Number       Type             X           Y           Z
 ---------------------------------------------------------------------
      1          8           0        0.007455   -1.321613    0.000000
      2          1           0       -0.792393   -1.892357    0.000000
      3          1           0        0.806749   -1.893132    0.000000
      4          8           0        0.007455    1.322583    0.000000
      5          1           0        0.725963    1.992844    0.000000
      6          1           0       -0.859600    1.784883    0.000000
 ---------------------------------------------------------------------

 SCF Done:  E(RHF) =  -152.096182880     A.U. after   11 cycles
 E2 =    -0.5284769413D+00 EUMP2 =    -0.15262465982108D+03
 CCSD(T)
 CCSD(T)= -0.15265197765D+03

 The electronic state is 1-A'.
 Alpha  occ. eigenvalues --  -20.53343 -20.53316  -1.31048  -1.30444  -0.68390
 Alpha  occ. eigenvalues --   -0.67973  -0.56424  -0.51106  -0.48316  -0.47271
 Alpha virt. eigenvalues --    0.14470   0.17261   0.20567   0.22199   0.50685
 Alpha virt. eigenvalues --    0.58659   0.58831   0.62181   0.72377   0.76609
 Alpha virt. eigenvalues --    0.76839   0.78658   0.80762   0.83695   0.86391

 Mulliken charges:
               1
     1  O   -0.463538
     2  H    0.230058
     3  H    0.233355
     4  O   -0.462452
     5  H    0.229664
     6  H    0.232913
 Sum of Mulliken charges =  -0.00000

 Dipole moment (field-independent basis, Debye):
    X=             -0.2373    Y=             -0.0186    Z=              0.0000  Tot=              0.2380
 Quadrupole moment (field-independent basis, Debye-Ang):
   XX=             -7.9860   YY=             -2.1299   ZZ=            -14.7186
   XY=             -0.1231   XZ=              0.0000   YZ=              0.0000

 11743\MP4DQ=-152.633387\MP4SDQ=-152.636595\CCSD=-152.6359544\CCSD(T)=-
 Normal termination of Gaussian 16 at Fri Aug 26 21:41:32 2022.
