 Gaussian 16, Revision A.03,
 Gaussian 16:  ES64L-G16RevA.03 25-Dec-2016

 ------------------
 #p CCSD(T)/cc-pVTZ
 ------------------

 ------------
 H2O_H2O_2965
 ------------
 Symbolic Z-matrix:
 Charge =  0 Multiplicity = 1

                         Standard orientation:
 ---------------------------------------------------------------------
 Center     Atomic      Atomic             Coordinates (Angstroms)
 Number     Number       Type             X           Y           Z
 ---------------------------------------------------------------------
      1          8           0        0.047532   -2.345034    0.000000
      2          1           0       -0.753023   -2.914786    0.000000
      3          1           0        0.846116   -2.917544    0.000000
      4          8           0        0.047532    2.395635    0.000000
      5          1           0        0.018564    3.377811    0.000000
      6          1           0       -0.872163    2.049706    0.000000
 ---------------------------------------------------------------------

 SCF Done:  E(RHF) =  -152.106896959     A.U. after   10 cycles
 E2 =    -0.5259981064D+00 EUMP2 =    -0.15263289506526D+03
 CCSD(T)
 CCSD(T)= -0.15266011955D+03

 The electronic state is 1-A'.
 Alpha  occ. eigenvalues --  -20.55335 -20.54793  -1.32629  -1.32084  -0.70038
 Alpha  occ. eigenvalues --   -0.69477  -0.56049  -0.55505  -0.49737  -0.49195
 Alpha virt. eigenvalues --    0.13887   0.15157   0.20262   0.21067   0.54349
 Alpha virt. eigenvalues --    0.55017   0.57408   0.57890   0.66773   0.70741
 Alpha virt. eigenvalues --    0.79141   0.79675   0.80409   0.81220   0.82902

 Mulliken charges:
               1
     1  O   -0.505533
     2  H    0.250433
     3  H    0.255262
     4  O   -0.505160
     5  H    0.248663
     6  H    0.256334
 Sum of Mulliken charges =   0.00000

 Dipole moment (field-independent basis, Debye):
    X=             -1.6217    Y=             -0.8994    Z=              0.0000  Tot=              1.8544
 Quadrupole moment (field-independent basis, Debye-Ang):
   XX=             -9.2268   YY=              4.0553   ZZ=            -14.7117
   XY=             -3.1551   XZ=              0.0000   YZ=              0.0000

 Normal termination of Gaussian 16 at Fri Aug 26 17:52:29 2022.
