 Gaussian 16, Revision A.03,
 Gaussian 16:  ES64L-G16RevA.03 25-Dec-2016

 ------------------
 #p CCSD(T)/cc-pVTZ
 ------------------

 ------------
 H2O_H2O_3532
 ------------
 Symbolic Z-matrix:
 Charge =  0 Multiplicity = 1

                         Standard orientation:
 ---------------------------------------------------------------------
 Center     Atomic      Atomic             Coordinates (Angstroms)
 Number     Number       Type             X           Y           Z
 ---------------------------------------------------------------------
      1          8           0        0.025265   -2.671947    0.000000
      2          1           0       -0.774769   -3.242429    0.000000
      3          1           0        0.824372   -3.243728    0.000000
      4          8           0        0.025265    2.683685    0.000000
      5          1           0        0.490476    3.549183    0.000000
      6          1           0       -0.944325    2.843065    0.000000
 ---------------------------------------------------------------------

 SCF Done:  E(RHF) =  -152.106538497     A.U. after   10 cycles
 E2 =    -0.5259751406D+00 EUMP2 =    -0.15263251363727D+03
 CCSD(T)
 CCSD(T)= -0.15265975109D+03

 The electronic state is 1-A'.
 Alpha  occ. eigenvalues --  -20.55098 -20.55003  -1.32392  -1.32297  -0.69801
 Alpha  occ. eigenvalues --   -0.69702  -0.55799  -0.55703  -0.49498  -0.49402
 Alpha virt. eigenvalues --    0.14411   0.14693   0.20511   0.20661   0.54746
 Alpha virt. eigenvalues --    0.54895   0.57607   0.57714   0.68022   0.69004
 Alpha virt. eigenvalues --    0.79380   0.79474   0.80821   0.80941   0.82753

 Mulliken charges:
               1
     1  O   -0.503761
     2  H    0.250967
     3  H    0.252796
     4  O   -0.503617
     5  H    0.250538
     6  H    0.253077
 Sum of Mulliken charges =   0.00000

 Dipole moment (field-independent basis, Debye):
    X=             -0.8651    Y=             -0.2062    Z=              0.0000  Tot=              0.8894
 Quadrupole moment (field-independent basis, Debye-Ang):
   XX=             -8.2099   YY=              8.6592   ZZ=            -14.7104
   XY=             -1.6307   XZ=              0.0000   YZ=              0.0000

 Normal termination of Gaussian 16 at Sat Aug 27 01:16:47 2022.
