 Gaussian 16, Revision A.03,
 Gaussian 16:  ES64L-G16RevA.03 25-Dec-2016

 ------------------
 #p CCSD(T)/cc-pVTZ
 ------------------

 ------------
 H2O_H2O_3320
 ------------
 Symbolic Z-matrix:
 Charge =  0 Multiplicity = 1

                         Standard orientation:
 ---------------------------------------------------------------------
 Center     Atomic      Atomic             Coordinates (Angstroms)
 Number     Number       Type             X           Y           Z
 ---------------------------------------------------------------------
      1          8           0        0.055246   -2.512791    0.000000
      2          1           0       -0.745385   -3.082436    0.000000
      3          1           0        0.853754   -3.085408    0.000000
      4          8           0        0.055246    2.597248    0.000000
      5          1           0       -0.287770    3.518033    0.000000
      6          1           0       -0.704529    1.974152    0.000000
 ---------------------------------------------------------------------

 SCF Done:  E(RHF) =  -152.107546005     A.U. after   10 cycles
 E2 =    -0.5259186426D+00 EUMP2 =    -0.15263346464758D+03
 CCSD(T)
 CCSD(T)= -0.15266067680D+03

 The electronic state is 1-A'.
 Alpha  occ. eigenvalues --  -20.55653 -20.54874  -1.32950  -1.32171  -0.70357
 Alpha  occ. eigenvalues --   -0.69561  -0.56402  -0.55617  -0.50062  -0.49286
 Alpha virt. eigenvalues --    0.13719   0.15017   0.20078   0.21057   0.54152
 Alpha virt. eigenvalues --    0.54923   0.57138   0.57835   0.67109   0.69498
 Alpha virt. eigenvalues --    0.78822   0.79578   0.80123   0.80616   0.82751

 Mulliken charges:
               1
     1  O   -0.509382
     2  H    0.252556
     3  H    0.256988
     4  O   -0.508955
     5  H    0.250190
     6  H    0.258602
 Sum of Mulliken charges =  -0.00000

 Dipole moment (field-independent basis, Debye):
    X=             -1.8905    Y=             -1.4944    Z=              0.0000  Tot=              2.4098
 Quadrupole moment (field-independent basis, Debye-Ang):
   XX=             -9.7228   YY=              2.6489   ZZ=            -14.7129
   XY=             -4.5997   XZ=              0.0000   YZ=              0.0000

 Normal termination of Gaussian 16 at Fri Aug 26 21:20:33 2022.
