 Gaussian 16, Revision A.03,
 Gaussian 16:  ES64L-G16RevA.03 25-Dec-2016

 ------------------
 #p CCSD(T)/cc-pVTZ
 ------------------

 ------------
 H2O_H2O_3943
 ------------
 Symbolic Z-matrix:
 Charge =  0 Multiplicity = 1

                         Standard orientation:
 ---------------------------------------------------------------------
 Center     Atomic      Atomic             Coordinates (Angstroms)
 Number     Number       Type             X           Y           Z
 ---------------------------------------------------------------------
      1          8           0        0.052821   -2.852851    0.000000
      2          1           0       -0.747647   -3.422725    0.000000
      3          1           0        0.851493   -3.425240    0.000000
      4          8           0        0.052821    2.923199    0.000000
      5          1           0       -0.167347    3.880817    0.000000
      6          1           0       -0.781636    2.404367    0.000000
 ---------------------------------------------------------------------

 SCF Done:  E(RHF) =  -152.107342008     A.U. after   10 cycles
 E2 =    -0.5258971019D+00 EUMP2 =    -0.15263323911030D+03
 CCSD(T)
 CCSD(T)= -0.15266045975D+03

 The electronic state is 1-A'.
 Alpha  occ. eigenvalues --  -20.55550 -20.55056  -1.32848  -1.32353  -0.70255
 Alpha  occ. eigenvalues --   -0.69750  -0.56293  -0.55795  -0.49959  -0.49466
 Alpha virt. eigenvalues --    0.14059   0.14658   0.20182   0.20735   0.54300
 Alpha virt. eigenvalues --    0.54825   0.57219   0.57710   0.67765   0.68552
 Alpha virt. eigenvalues --    0.78921   0.79405   0.80350   0.80831   0.82368

 Mulliken charges:
               1
     1  O   -0.508518
     2  H    0.252750
     3  H    0.255777
     4  O   -0.508153
     5  H    0.251330
     6  H    0.256814
 Sum of Mulliken charges =  -0.00000

 Dipole moment (field-independent basis, Debye):
    X=             -1.8128    Y=             -1.2338    Z=              0.0000  Tot=              2.1928
 Quadrupole moment (field-independent basis, Debye-Ang):
   XX=             -9.5591   YY=              5.6141   ZZ=            -14.7120
   XY=             -4.7613   XZ=              0.0000   YZ=              0.0000

 Normal termination of Gaussian 16 at Sat Aug 27 04:28:17 2022.
