 Gaussian 16, Revision A.03,
 Gaussian 16:  ES64L-G16RevA.03 25-Dec-2016

 ------------------
 #p CCSD(T)/cc-pVTZ
 ------------------

 ------------
 H2O_H2O_2533
 ------------
 Symbolic Z-matrix:
 Charge =  0 Multiplicity = 1

                         Standard orientation:
 ---------------------------------------------------------------------
 Center     Atomic      Atomic             Coordinates (Angstroms)
 Number     Number       Type             X           Y           Z
 ---------------------------------------------------------------------
      1          8           0        0.028565   -2.138209    0.000000
      2          1           0       -0.771660   -2.708425    0.000000
      3          1           0        0.827481   -2.710257    0.000000
      4          8           0        0.028565    2.153447    0.000000
      5          1           0        0.436474    3.047381    0.000000
      6          1           0       -0.949340    2.249397    0.000000
 ---------------------------------------------------------------------

 SCF Done:  E(RHF) =  -152.105852210     A.U. after   10 cycles
 E2 =    -0.5261472522D+00 EUMP2 =    -0.15263199946258D+03
 CCSD(T)
 CCSD(T)= -0.15265924089D+03

 The electronic state is 1-A'.
 Alpha  occ. eigenvalues --  -20.54865 -20.54668  -1.32153  -1.31953  -0.69566
 Alpha  occ. eigenvalues --   -0.69359  -0.55546  -0.55290  -0.49254  -0.49056
 Alpha virt. eigenvalues --    0.14115   0.15393   0.20514   0.21061   0.54398
 Alpha virt. eigenvalues --    0.55477   0.57761   0.58013   0.64718   0.73099
 Alpha virt. eigenvalues --    0.79513   0.79918   0.80919   0.81180   0.82368

 Mulliken charges:
               1
     1  O   -0.499177
     2  H    0.247747
     3  H    0.251531
     4  O   -0.498820
     5  H    0.246904
     6  H    0.251815
 Sum of Mulliken charges =  -0.00000

 Dipole moment (field-independent basis, Debye):
    X=             -0.9696    Y=             -0.2731    Z=              0.0000  Tot=              1.0074
 Quadrupole moment (field-independent basis, Debye-Ang):
   XX=             -8.3337   YY=              4.4097   ZZ=            -14.7101
   XY=             -1.3632   XZ=              0.0000   YZ=              0.0000

 Normal termination of Gaussian 16 at Fri Aug 26 13:26:34 2022.
