 Gaussian 16, Revision A.03,
 Gaussian 16:  ES64L-G16RevA.03 25-Dec-2016

 ------------------
 #p CCSD(T)/cc-pVTZ
 ------------------

 ------------
 H2O_H2O_2729
 ------------
 Symbolic Z-matrix:
 Charge =  0 Multiplicity = 1

                         Standard orientation:
 ---------------------------------------------------------------------
 Center     Atomic      Atomic             Coordinates (Angstroms)
 Number     Number       Type             X           Y           Z
 ---------------------------------------------------------------------
      1          8           0        0.014783   -2.250748    0.000000
      2          1           0       -0.785110   -2.821428    0.000000
      3          1           0        0.814031   -2.822332    0.000000
      4          8           0        0.014783    2.254624    0.000000
      5          1           0        0.639719    3.012886    0.000000
      6          1           0       -0.905169    2.599870    0.000000
 ---------------------------------------------------------------------

 SCF Done:  E(RHF) =  -152.105798147     A.U. after   10 cycles
 E2 =    -0.5261028970D+00 EUMP2 =    -0.15263190104367D+03
 CCSD(T)
 CCSD(T)= -0.15265914881D+03

 The electronic state is 1-A'.
 Alpha  occ. eigenvalues --  -20.54806 -20.54762  -1.32097  -1.32051  -0.69509
 Alpha  occ. eigenvalues --   -0.69462  -0.55498  -0.55380  -0.49198  -0.49151
 Alpha virt. eigenvalues --    0.14313   0.15180   0.20604   0.20895   0.54738
 Alpha virt. eigenvalues --    0.55401   0.57794   0.57939   0.65620   0.71937
 Alpha virt. eigenvalues --    0.79599   0.79796   0.81117   0.81186   0.82283

 Mulliken charges:
               1
     1  O   -0.499263
     2  H    0.248778
     3  H    0.250495
     4  O   -0.499147
     5  H    0.248495
     6  H    0.250641
 Sum of Mulliken charges =  -0.00000

 Dipole moment (field-independent basis, Debye):
    X=             -0.5031    Y=             -0.0690    Z=              0.0000  Tot=              0.5078
 Quadrupole moment (field-independent basis, Debye-Ang):
   XX=             -7.9587   YY=              5.7539   ZZ=            -14.7097
   XY=             -0.7058   XZ=              0.0000   YZ=              0.0000

 648583\MP4DQ=-152.64101\MP4SDQ=-152.6440815\CCSD=-152.6434884\CCSD(T)=
 Normal termination of Gaussian 16 at Fri Aug 26 15:32:37 2022.
