 Gaussian 16, Revision A.03,
 Gaussian 16:  ES64L-G16RevA.03 25-Dec-2016

 ------------------
 #p CCSD(T)/cc-pVTZ
 ------------------

 ------------
 H2O_H2O_1838
 ------------
 Symbolic Z-matrix:
 Charge =  0 Multiplicity = 1

                         Standard orientation:
 ---------------------------------------------------------------------
 Center     Atomic      Atomic             Coordinates (Angstroms)
 Number     Number       Type             X           Y           Z
 ---------------------------------------------------------------------
      1          8           0        0.042980   -1.753163    0.000000
      2          1           0       -0.757780   -2.322626    0.000000
      3          1           0        0.841359   -2.325961    0.000000
      4          8           0        0.042980    1.791896    0.000000
      5          1           0        0.142813    2.769413    0.000000
      6          1           0       -0.914080    1.569315    0.000000
 ---------------------------------------------------------------------

 SCF Done:  E(RHF) =  -152.105781266     A.U. after   10 cycles
 E2 =    -0.5265673706D+00 EUMP2 =    -0.15263234863644D+03
 CCSD(T)
 CCSD(T)= -0.15265955930D+03

 The electronic state is 1-A'.
 Alpha  occ. eigenvalues --  -20.54990 -20.54214  -1.32266  -1.31480  -0.69687
 Alpha  occ. eigenvalues --   -0.68869  -0.55711  -0.54716  -0.49374  -0.48586
 Alpha virt. eigenvalues --    0.13743   0.16212   0.20273   0.21984   0.53331
 Alpha virt. eigenvalues --    0.55290   0.57691   0.58536   0.63828   0.76698
 Alpha virt. eigenvalues --    0.78679   0.78688   0.80189   0.80970   0.84964

 Mulliken charges:
               1
     1  O   -0.492006
     2  H    0.242277
     3  H    0.251337
     4  O   -0.493855
     5  H    0.239673
     6  H    0.252573
 Sum of Mulliken charges =  -0.00000

 Dipole moment (field-independent basis, Debye):
    X=             -1.4353    Y=             -0.7188    Z=              0.0000  Tot=              1.6052
 Quadrupole moment (field-independent basis, Debye-Ang):
   XX=             -8.9897   YY=              0.7084   ZZ=            -14.7125
   XY=             -1.8308   XZ=              0.0000   YZ=              0.0000

 Normal termination of Gaussian 16 at Sat Aug 27 07:05:54 2022.
