 Gaussian 16, Revision A.03,
 Gaussian 16:  ES64L-G16RevA.03 25-Dec-2016

 ------------------
 #p CCSD(T)/cc-pVTZ
 ------------------

 ----------
 H2O_H2O_20
 ----------
 Symbolic Z-matrix:
 Charge =  0 Multiplicity = 1

                         Standard orientation:
 ---------------------------------------------------------------------
 Center     Atomic      Atomic             Coordinates (Angstroms)
 Number     Number       Type             X           Y           Z
 ---------------------------------------------------------------------
      1          8           0        0.055417   -0.757966    0.000000
      2          1           0       -0.747530   -1.324341    0.000000
      3          1           0        0.851584   -1.333835    0.000000
      4          8           0        0.055417    0.841972    0.000000
      5          1           0       -0.283841    1.764148    0.000000
      6          1           0       -0.706892    0.221980    0.000000
 ---------------------------------------------------------------------

 SCF Done:  E(RHF) =  -151.867414350     A.U. after   12 cycles
 E2 =    -0.5553053441D+00 EUMP2 =    -0.15242271969397D+03
 CCSD(T)
 CCSD(T)= -0.15244659453D+03

 The electronic state is 1-A'.
 Alpha  occ. eigenvalues --  -20.55701 -20.48788  -1.43694  -1.25528  -0.79853
 Alpha  occ. eigenvalues --   -0.73599  -0.56632  -0.52214  -0.42607  -0.38443
 Alpha virt. eigenvalues --    0.13086   0.18215   0.20538   0.25355   0.49812
 Alpha virt. eigenvalues --    0.53981   0.61594   0.69246   0.73231   0.76240
 Alpha virt. eigenvalues --    0.77013   0.80365   0.84270   0.84709   0.89246

 Mulliken charges:
               1
     1  O   -0.254868
     2  H    0.135096
     3  H    0.192538
     4  O   -0.425995
     5  H    0.093509
     6  H    0.259720
 Sum of Mulliken charges =  -0.00000

 Dipole moment (field-independent basis, Debye):
    X=             -1.3776    Y=             -2.1193    Z=              0.0000  Tot=              2.5277
 Quadrupole moment (field-independent basis, Debye-Ang):
   XX=             -9.8539   YY=             -9.6539   ZZ=            -14.5264
   XY=             -1.2180   XZ=              0.0000   YZ=              0.0000

 Normal termination of Gaussian 16 at Fri Aug 26 11:57:01 2022.
