 Gaussian 16, Revision A.03,
 Gaussian 16:  ES64L-G16RevA.03 25-Dec-2016

 ------------------
 #p CCSD(T)/cc-pVTZ
 ------------------

 ------------
 H2O_H2O_1936
 ------------
 Symbolic Z-matrix:
 Charge =  0 Multiplicity = 1

                         Standard orientation:
 ---------------------------------------------------------------------
 Center     Atomic      Atomic             Coordinates (Angstroms)
 Number     Number       Type             X           Y           Z
 ---------------------------------------------------------------------
      1          8           0        0.037682   -1.812060    0.000000
      2          1           0       -0.762901   -2.381772    0.000000
      3          1           0        0.836238   -2.384611    0.000000
      4          8           0        0.037682    1.840273    0.000000
      5          1           0        0.263956    2.796466    0.000000
      6          1           0       -0.940214    1.744214    0.000000
 ---------------------------------------------------------------------

 SCF Done:  E(RHF) =  -152.105506994     A.U. after   10 cycles
 E2 =    -0.5264867870D+00 EUMP2 =    -0.15263199378117D+03
 CCSD(T)
 CCSD(T)= -0.15265921668D+03

 The electronic state is 1-A'.
 Alpha  occ. eigenvalues --  -20.54841 -20.54316  -1.32119  -1.31586  -0.69539
 Alpha  occ. eigenvalues --   -0.68983  -0.55573  -0.54790  -0.49225  -0.48688
 Alpha virt. eigenvalues --    0.13852   0.16056   0.20372   0.21674   0.53225
 Alpha virt. eigenvalues --    0.55584   0.57801   0.58406   0.63300   0.76308
 Alpha virt. eigenvalues --    0.78979   0.79214   0.80686   0.80771   0.83865

 Mulliken charges:
               1
     1  O   -0.492512
     2  H    0.242985
     3  H    0.250452
     4  O   -0.493246
     5  H    0.241112
     6  H    0.251210
 Sum of Mulliken charges =  -0.00000

 Dipole moment (field-independent basis, Debye):
    X=             -1.2628    Y=             -0.5202    Z=              0.0000  Tot=              1.3658
 Quadrupole moment (field-independent basis, Debye-Ang):
   XX=             -8.7235   YY=              1.4897   ZZ=            -14.7113
   XY=             -1.5484   XZ=              0.0000   YZ=              0.0000

 86096\MP4DQ=-152.6410147\MP4SDQ=-152.6441092\CCSD=-152.643504\CCSD(T)=
 Normal termination of Gaussian 16 at Sat Aug 27 07:39:03 2022.
