 Gaussian 16, Revision A.03,
 Gaussian 16:  ES64L-G16RevA.03 25-Dec-2016

 ------------------
 #p CCSD(T)/cc-pVTZ
 ------------------

 -----------
 H2O_H2O_380
 -----------
 Symbolic Z-matrix:
 Charge =  0 Multiplicity = 1

                         Standard orientation:
 ---------------------------------------------------------------------
 Center     Atomic      Atomic             Coordinates (Angstroms)
 Number     Number       Type             X           Y           Z
 ---------------------------------------------------------------------
      1          8           0        0.018363   -0.999776    0.000000
      2          1           0       -0.782107   -1.569647    0.000000
      3          1           0        0.817033   -1.572167    0.000000
      4          8           0        0.018363    1.005780    0.000000
      5          1           0        0.593174    1.802711    0.000000
      6          1           0       -0.921910    1.291071    0.000000
 ---------------------------------------------------------------------

 SCF Done:  E(RHF) =  -152.051643787     A.U. after   11 cycles
 E2 =    -0.5352057219D+00 EUMP2 =    -0.15258684950878D+03
 CCSD(T)
 CCSD(T)= -0.15261365910D+03

 The electronic state is 1-A'.
 Alpha  occ. eigenvalues --  -20.52012 -20.51826  -1.32059  -1.28543  -0.68719
 Alpha  occ. eigenvalues --   -0.66663  -0.60709  -0.49257  -0.45002  -0.43906
 Alpha virt. eigenvalues --    0.14600   0.18335   0.20416   0.22954   0.51060
 Alpha virt. eigenvalues --    0.58842   0.58994   0.65672   0.69784   0.77813
 Alpha virt. eigenvalues --    0.78778   0.82807   0.84226   0.86546   0.87532

 Mulliken charges:
               1
     1  O   -0.433794
     2  H    0.210378
     3  H    0.221959
     4  O   -0.418659
     5  H    0.192263
     6  H    0.227854
 Sum of Mulliken charges =  -0.00000

 Dipole moment (field-independent basis, Debye):
    X=             -0.5360    Y=             -0.1273    Z=              0.0000  Tot=              0.5509
 Quadrupole moment (field-independent basis, Debye-Ang):
   XX=             -8.3387   YY=             -5.7226   ZZ=            -14.7465
   XY=             -0.1901   XZ=              0.0000   YZ=              0.0000

 Normal termination of Gaussian 16 at Fri Aug 26 15:51:29 2022.
