 Gaussian 16, Revision A.03,
 Gaussian 16:  ES64L-G16RevA.03 25-Dec-2016

 ------------------
 #p CCSD(T)/cc-pVTZ
 ------------------

 ------------
 H2O_H2O_4396
 ------------
 Symbolic Z-matrix:
 Charge =  0 Multiplicity = 1

                         Standard orientation:
 ---------------------------------------------------------------------
 Center     Atomic      Atomic             Coordinates (Angstroms)
 Number     Number       Type             X           Y           Z
 ---------------------------------------------------------------------
      1          8           0        0.056087   -3.080545    0.000000
      2          1           0       -0.744364   -3.650443    0.000000
      3          1           0        0.854776   -3.652910    0.000000
      4          8           0        0.056087    3.172314    0.000000
      5          1           0       -0.346701    4.068567    0.000000
      6          1           0       -0.661097    2.500634    0.000000
 ---------------------------------------------------------------------

 SCF Done:  E(RHF) =  -152.107543606     A.U. after   10 cycles
 E2 =    -0.5258692663D+00 EUMP2 =    -0.15263341287279D+03
 CCSD(T)
 CCSD(T)= -0.15266062995D+03

 The electronic state is 1-A'.
 Alpha  occ. eigenvalues --  -20.55676 -20.55133  -1.32975  -1.32432  -0.70381
 Alpha  occ. eigenvalues --   -0.69831  -0.56429  -0.55882  -0.50088  -0.49546
 Alpha virt. eigenvalues --    0.13993   0.14566   0.20091   0.20676   0.54178
 Alpha virt. eigenvalues --    0.54742   0.57109   0.57651   0.67714   0.68343
 Alpha virt. eigenvalues --    0.78793   0.79325   0.80220   0.80781   0.82173

 Mulliken charges:
               1
     1  O   -0.509700
     2  H    0.253616
     3  H    0.256086
     4  O   -0.509364
     5  H    0.252193
     6  H    0.257169
 Sum of Mulliken charges =  -0.00000

 Dipole moment (field-independent basis, Debye):
    X=             -1.9276    Y=             -1.6045    Z=              0.0000  Tot=              2.5080
 Quadrupole moment (field-independent basis, Debye-Ang):
   XX=             -9.7842   YY=              4.7829   ZZ=            -14.7124
   XY=             -5.8900   XZ=              0.0000   YZ=              0.0000

 Normal termination of Gaussian 16 at Sat Aug 27 07:05:33 2022.
