 Gaussian 16, Revision A.03,
 Gaussian 16:  ES64L-G16RevA.03 25-Dec-2016

 ------------------
 #p CCSD(T)/cc-pVTZ
 ------------------

 -----------
 H2O_H2O_133
 -----------
 Symbolic Z-matrix:
 Charge =  0 Multiplicity = 1

                         Standard orientation:
 ---------------------------------------------------------------------
 Center     Atomic      Atomic             Coordinates (Angstroms)
 Number     Number       Type             X           Y           Z
 ---------------------------------------------------------------------
      1          8           0        0.028578   -0.861852    0.000000
      2          1           0       -0.772605   -1.430721    0.000000
      3          1           0        0.826531   -1.435243    0.000000
      4          8           0        0.028578    0.876994    0.000000
      5          1           0        0.437990    1.770241    0.000000
      6          1           0       -0.949165    0.974589    0.000000
 ---------------------------------------------------------------------

 SCF Done:  E(RHF) =  -151.981778335     A.U. after   11 cycles
 E2 =    -0.5441274793D+00 EUMP2 =    -0.15252590581477D+03
 CCSD(T)
 CCSD(T)= -0.15255153184D+03

 The electronic state is 1-A'.
 Alpha  occ. eigenvalues --  -20.51816 -20.51360  -1.35044  -1.27284  -0.70943
 Alpha  occ. eigenvalues --   -0.67838  -0.62285  -0.51542  -0.43695  -0.38005
 Alpha virt. eigenvalues --    0.14376   0.18974   0.19973   0.23393   0.52777
 Alpha virt. eigenvalues --    0.56939   0.58849   0.65589   0.70701   0.78433
 Alpha virt. eigenvalues --    0.79605   0.83053   0.83543   0.85492   0.88541

 Mulliken charges:
               1
     1  O   -0.387459
     2  H    0.183448
     3  H    0.203608
     4  O   -0.362461
     5  H    0.139037
     6  H    0.223827
 Sum of Mulliken charges =  -0.00000

 Dipole moment (field-independent basis, Debye):
    X=             -0.7969    Y=             -0.3629    Z=              0.0000  Tot=              0.8757
 Quadrupole moment (field-independent basis, Debye-Ang):
   XX=             -8.7334   YY=             -7.8614   ZZ=            -14.7259
   XY=             -0.3513   XZ=              0.0000   YZ=              0.0000

 Normal termination of Gaussian 16 at Fri Aug 26 13:08:26 2022.
