 Gaussian 16, Revision A.03,
 Gaussian 16:  ES64L-G16RevA.03 25-Dec-2016

 ------------------
 #p CCSD(T)/cc-pVTZ
 ------------------

 -----------
 H2O_H2O_610
 -----------
 Symbolic Z-matrix:
 Charge =  0 Multiplicity = 1

                         Standard orientation:
 ---------------------------------------------------------------------
 Center     Atomic      Atomic             Coordinates (Angstroms)
 Number     Number       Type             X           Y           Z
 ---------------------------------------------------------------------
      1          8           0        0.034800   -1.109980    0.000000
      2          1           0       -0.766292   -1.678976    0.000000
      3          1           0        0.832844   -1.683243    0.000000
      4          8           0        0.034800    1.133398    0.000000
      5          1           0        0.323966    2.072487    0.000000
      6          1           0       -0.947313    1.102380    0.000000
 ---------------------------------------------------------------------

 SCF Done:  E(RHF) =  -152.082577119     A.U. after   11 cycles
 E2 =    -0.5313174872D+00 EUMP2 =    -0.15261389460666D+03
 CCSD(T)
 CCSD(T)= -0.15264103181D+03

 The electronic state is 1-A'.
 Alpha  occ. eigenvalues --  -20.53306 -20.52525  -1.31751  -1.29561  -0.68942
 Alpha  occ. eigenvalues --   -0.67522  -0.57877  -0.49003  -0.48661  -0.46270
 Alpha virt. eigenvalues --    0.14315   0.17727   0.20337   0.23122   0.52651
 Alpha virt. eigenvalues --    0.58116   0.58389   0.62800   0.70693   0.76295
 Alpha virt. eigenvalues --    0.77991   0.81070   0.83724   0.86022   0.87576

 Mulliken charges:
               1
     1  O   -0.458665
     2  H    0.219908
     3  H    0.237372
     4  O   -0.435086
     5  H    0.198118
     6  H    0.238353
 Sum of Mulliken charges =  -0.00000

 Dipole moment (field-independent basis, Debye):
    X=             -1.0516    Y=             -0.4650    Z=              0.0000  Tot=              1.1498
 Quadrupole moment (field-independent basis, Debye-Ang):
   XX=             -8.7490   YY=             -4.3367   ZZ=            -14.7310
   XY=             -0.6013   XZ=              0.0000   YZ=              0.0000

 Normal termination of Gaussian 16 at Fri Aug 26 18:11:50 2022.
