 Gaussian 16, Revision A.03,
 Gaussian 16:  ES64L-G16RevA.03 25-Dec-2016

 ------------------
 #p CCSD(T)/cc-pVTZ
 ------------------

 ------------
 H2O_H2O_2654
 ------------
 Symbolic Z-matrix:
 Charge =  0 Multiplicity = 1

                         Standard orientation:
 ---------------------------------------------------------------------
 Center     Atomic      Atomic             Coordinates (Angstroms)
 Number     Number       Type             X           Y           Z
 ---------------------------------------------------------------------
      1          8           0        0.014783   -2.210861    0.000000
      2          1           0       -0.785116   -2.781533    0.000000
      3          1           0        0.814026   -2.782452    0.000000
      4          8           0        0.014783    2.214736    0.000000
      5          1           0        0.639726    2.972992    0.000000
      6          1           0       -0.905165    2.559992    0.000000
 ---------------------------------------------------------------------

 SCF Done:  E(RHF) =  -152.105719033     A.U. after   10 cycles
 E2 =    -0.5261232546D+00 EUMP2 =    -0.15263184228781D+03
 CCSD(T)
 CCSD(T)= -0.15265909036D+03

 The electronic state is 1-A'.
 Alpha  occ. eigenvalues --  -20.54779 -20.54733  -1.32069  -1.32021  -0.69482
 Alpha  occ. eigenvalues --   -0.69433  -0.55476  -0.55334  -0.49170  -0.49121
 Alpha virt. eigenvalues --    0.14289   0.15243   0.20606   0.20928   0.54698
 Alpha virt. eigenvalues --    0.55484   0.57808   0.57969   0.65175   0.72377
 Alpha virt. eigenvalues --    0.79603   0.79850   0.81162   0.81177   0.82184

 Mulliken charges:
               1
     1  O   -0.498719
     2  H    0.248466
     3  H    0.250267
     4  O   -0.498597
     5  H    0.248173
     6  H    0.250409
 Sum of Mulliken charges =  -0.00000

 Dipole moment (field-independent basis, Debye):
    X=             -0.5026    Y=             -0.0691    Z=              0.0000  Tot=              0.5073
 Quadrupole moment (field-independent basis, Debye-Ang):
   XX=             -7.9603   YY=              5.4342   ZZ=            -14.7097
   XY=             -0.6860   XZ=              0.0000   YZ=              0.0000

 Normal termination of Gaussian 16 at Fri Aug 26 14:46:01 2022.
