 Gaussian 16, Revision A.03,
 Gaussian 16:  ES64L-G16RevA.03 25-Dec-2016

 ------------------
 #p CCSD(T)/cc-pVTZ
 ------------------

 ------------
 H2O_H2O_2669
 ------------
 Symbolic Z-matrix:
 Charge =  0 Multiplicity = 1

                         Standard orientation:
 ---------------------------------------------------------------------
 Center     Atomic      Atomic             Coordinates (Angstroms)
 Number     Number       Type             X           Y           Z
 ---------------------------------------------------------------------
      1          8           0        0.054164   -2.170993    0.000000
      2          1           0       -0.746609   -2.740439    0.000000
      3          1           0        0.852530   -2.743809    0.000000
      4          8           0        0.054164    2.248275    0.000000
      5          1           0       -0.227663    3.189593    0.000000
      6          1           0       -0.744879    1.676403    0.000000
 ---------------------------------------------------------------------

 SCF Done:  E(RHF) =  -152.107510251     A.U. after   10 cycles
 E2 =    -0.5260355366D+00 EUMP2 =    -0.15263354578727D+03
 CCSD(T)
 CCSD(T)= -0.15266074676D+03

 The electronic state is 1-A'.
 Alpha  occ. eigenvalues --  -20.55620 -20.54620  -1.32908  -1.31912  -0.70316
 Alpha  occ. eigenvalues --   -0.69294  -0.56348  -0.55353  -0.50020  -0.49030
 Alpha virt. eigenvalues --    0.13403   0.15531   0.20058   0.21599   0.54054
 Alpha virt. eigenvalues --    0.54778   0.57199   0.58099   0.66244   0.72280
 Alpha virt. eigenvalues --    0.78856   0.79795   0.79841   0.81403   0.82612

 Mulliken charges:
               1
     1  O   -0.506870
     2  H    0.250662
     3  H    0.257095
     4  O   -0.508041
     5  H    0.247845
     6  H    0.259309
 Sum of Mulliken charges =  -0.00000

 Dipole moment (field-independent basis, Debye):
    X=             -1.8420    Y=             -1.3900    Z=              0.0000  Tot=              2.3076
 Quadrupole moment (field-independent basis, Debye-Ang):
   XX=             -9.6481   YY=              1.3837   ZZ=            -14.7137
   XY=             -3.7560   XZ=              0.0000   YZ=              0.0000

 Normal termination of Gaussian 16 at Fri Aug 26 14:53:57 2022.
