 Gaussian 16, Revision A.03,
 Gaussian 16:  ES64L-G16RevA.03 25-Dec-2016

 ------------------
 #p CCSD(T)/cc-pVTZ
 ------------------

 ------------
 H2O_H2O_1739
 ------------
 Symbolic Z-matrix:
 Charge =  0 Multiplicity = 1

                         Standard orientation:
 ---------------------------------------------------------------------
 Center     Atomic      Atomic             Coordinates (Angstroms)
 Number     Number       Type             X           Y           Z
 ---------------------------------------------------------------------
      1          8           0        0.045362   -1.696855    0.000000
      2          1           0       -0.755503   -2.266172    0.000000
      3          1           0        0.843635   -2.269800    0.000000
      4          8           0        0.045362    1.741339    0.000000
      5          1           0        0.081229    2.723287    0.000000
      6          1           0       -0.895144    1.456814    0.000000
 ---------------------------------------------------------------------

 SCF Done:  E(RHF) =  -152.105872397     A.U. after   10 cycles
 E2 =    -0.5266713391D+00 EUMP2 =    -0.15263254373650D+03
 CCSD(T)
 CCSD(T)= -0.15265974685D+03

 The electronic state is 1-A'.
 Alpha  occ. eigenvalues --  -20.55067 -20.54113  -1.32345  -1.31376  -0.69766
 Alpha  occ. eigenvalues --   -0.68762  -0.55796  -0.54609  -0.49455  -0.48484
 Alpha virt. eigenvalues --    0.13703   0.16350   0.20213   0.22243   0.53576
 Alpha virt. eigenvalues --    0.55185   0.57627   0.58590   0.64216   0.76804
 Alpha virt. eigenvalues --    0.78397   0.78441   0.79496   0.81209   0.85209

 Mulliken charges:
               1
     1  O   -0.490693
     2  H    0.241390
     3  H    0.251542
     4  O   -0.493472
     5  H    0.238190
     6  H    0.253042
 Sum of Mulliken charges =  -0.00000

 Dipole moment (field-independent basis, Debye):
    X=             -1.5089    Y=             -0.8310    Z=              0.0000  Tot=              1.7226
 Quadrupole moment (field-independent basis, Debye-Ang):
   XX=             -9.1223   YY=              0.1169   ZZ=            -14.7135
   XY=             -1.9335   XZ=              0.0000   YZ=              0.0000

 Normal termination of Gaussian 16 at Sat Aug 27 06:30:54 2022.
