 Gaussian 16, Revision A.03,
 Gaussian 16:  ES64L-G16RevA.03 25-Dec-2016

 ------------------
 #p CCSD(T)/cc-pVTZ
 ------------------

 ------------
 H2O_H2O_2370
 ------------
 Symbolic Z-matrix:
 Charge =  0 Multiplicity = 1

                         Standard orientation:
 ---------------------------------------------------------------------
 Center     Atomic      Atomic             Coordinates (Angstroms)
 Number     Number       Type             X           Y           Z
 ---------------------------------------------------------------------
      1          8           0        0.055265   -2.007573    0.000000
      2          1           0       -0.745627   -2.576851    0.000000
      3          1           0        0.853511   -2.580556    0.000000
      4          8           0        0.055265    2.091979    0.000000
      5          1           0       -0.287329    3.012922    0.000000
      6          1           0       -0.704795    1.469232    0.000000
 ---------------------------------------------------------------------

 SCF Done:  E(RHF) =  -152.107835492     A.U. after   10 cycles
 E2 =    -0.5261365835D+00 EUMP2 =    -0.15263397207545D+03
 CCSD(T)
 CCSD(T)= -0.15266115449D+03

 The electronic state is 1-A'.
 Alpha  occ. eigenvalues --  -20.55749 -20.54433  -1.33028  -1.31725  -0.70437
 Alpha  occ. eigenvalues --   -0.69099  -0.56473  -0.55171  -0.50143  -0.48847
 Alpha virt. eigenvalues --    0.13207   0.15867   0.19972   0.22202   0.54134
 Alpha virt. eigenvalues --    0.54508   0.57105   0.58410   0.65867   0.73754
 Alpha virt. eigenvalues --    0.78675   0.79406   0.80067   0.81773   0.82593

 Mulliken charges:
               1
     1  O   -0.505139
     2  H    0.249706
     3  H    0.257448
     4  O   -0.509109
     5  H    0.246437
     6  H    0.260657
 Sum of Mulliken charges =  -0.00000

 Dipole moment (field-independent basis, Debye):
    X=             -1.8708    Y=             -1.5383    Z=              0.0000  Tot=              2.4220
 Quadrupole moment (field-independent basis, Debye-Ang):
   XX=             -9.7233   YY=              0.0874   ZZ=            -14.7152
   XY=             -3.6592   XZ=              0.0000   YZ=              0.0000

 Normal termination of Gaussian 16 at Sat Aug 27 10:11:03 2022.
