 Gaussian 16, Revision A.03,
 Gaussian 16:  ES64L-G16RevA.03 25-Dec-2016

 ------------------
 #p CCSD(T)/cc-pVTZ
 ------------------

 ------------
 H2O_H2O_3831
 ------------
 Symbolic Z-matrix:
 Charge =  0 Multiplicity = 1

                         Standard orientation:
 ---------------------------------------------------------------------
 Center     Atomic      Atomic             Coordinates (Angstroms)
 Number     Number       Type             X           Y           Z
 ---------------------------------------------------------------------
      1          8           0        0.021859   -2.833167    0.000000
      2          1           0       -0.778090   -3.403768    0.000000
      3          1           0        0.821051   -3.404829    0.000000
      4          8           0        0.021859    2.841833    0.000000
      5          1           0        0.542557    3.675128    0.000000
      6          1           0       -0.935264    3.064141    0.000000
 ---------------------------------------------------------------------

 SCF Done:  E(RHF) =  -152.106653266     A.U. after   10 cycles
 E2 =    -0.5259557019D+00 EUMP2 =    -0.15263260896757D+03
 CCSD(T)
 CCSD(T)= -0.15265984454D+03

 The electronic state is 1-A'.
 Alpha  occ. eigenvalues --  -20.55136 -20.55074  -1.32431  -1.32368  -0.69839
 Alpha  occ. eigenvalues --   -0.69774  -0.55843  -0.55780  -0.49537  -0.49474
 Alpha virt. eigenvalues --    0.14435   0.14583   0.20503   0.20590   0.54724
 Alpha virt. eigenvalues --    0.54807   0.57581   0.57650   0.68231   0.68646
 Alpha virt. eigenvalues --    0.79341   0.79403   0.80787   0.80858   0.82721

 Mulliken charges:
               1
     1  O   -0.504425
     2  H    0.251541
     3  H    0.252885
     4  O   -0.504342
     5  H    0.251233
     6  H    0.253109
 Sum of Mulliken charges =  -0.00000

 Dipole moment (field-independent basis, Debye):
    X=             -0.7495    Y=             -0.1518    Z=              0.0000  Tot=              0.7647
 Quadrupole moment (field-independent basis, Debye-Ang):
   XX=             -8.1070   YY=             10.0874   ZZ=            -14.7105
   XY=             -1.5080   XZ=              0.0000   YZ=              0.0000

 Normal termination of Gaussian 16 at Sat Aug 27 03:38:52 2022.
