 Gaussian 16, Revision A.03,
 Gaussian 16:  ES64L-G16RevA.03 25-Dec-2016

 ------------------
 #p CCSD(T)/cc-pVTZ
 ------------------

 ------------
 H2O_H2O_1327
 ------------
 Symbolic Z-matrix:
 Charge =  0 Multiplicity = 1

                         Standard orientation:
 ---------------------------------------------------------------------
 Center     Atomic      Atomic             Coordinates (Angstroms)
 Number     Number       Type             X           Y           Z
 ---------------------------------------------------------------------
      1          8           0        0.007455   -1.507755    0.000000
      2          1           0       -0.792359   -2.078547    0.000000
      3          1           0        0.806783   -2.079227    0.000000
      4          8           0        0.007455    1.508726    0.000000
      5          1           0        0.725923    2.179031    0.000000
      6          1           0       -0.859627    1.970975    0.000000
 ---------------------------------------------------------------------

 SCF Done:  E(RHF) =  -152.101390401     A.U. after   10 cycles
 E2 =    -0.5273681951D+00 EUMP2 =    -0.15262875859644D+03
 CCSD(T)
 CCSD(T)= -0.15265605573D+03

 The electronic state is 1-A'.
 Alpha  occ. eigenvalues --  -20.53858 -20.53835  -1.31266  -1.31044  -0.68674
 Alpha  occ. eigenvalues --   -0.68506  -0.55617  -0.52978  -0.48464  -0.47999
 Alpha virt. eigenvalues --    0.14385   0.16704   0.20566   0.21845   0.51711
 Alpha virt. eigenvalues --    0.58316   0.58655   0.59918   0.65889   0.76225
 Alpha virt. eigenvalues --    0.77795   0.78003   0.79261   0.82681   0.86119

 Mulliken charges:
               1
     1  O   -0.472657
     2  H    0.235077
     3  H    0.237595
     4  O   -0.472277
     5  H    0.235059
     6  H    0.237203
 Sum of Mulliken charges =  -0.00000

 Dipole moment (field-independent basis, Debye):
    X=             -0.2441    Y=             -0.0183    Z=              0.0000  Tot=              0.2448
 Quadrupole moment (field-independent basis, Debye-Ang):
   XX=             -7.9318   YY=             -0.3810   ZZ=            -14.7104
   XY=             -0.1661   XZ=              0.0000   YZ=              0.0000

 Normal termination of Gaussian 16 at Sat Aug 27 03:56:42 2022.
