 Gaussian 16, Revision A.03,
 Gaussian 16:  ES64L-G16RevA.03 25-Dec-2016

 ------------------
 #p CCSD(T)/cc-pVTZ
 ------------------

 ------------
 H2O_H2O_4326
 ------------
 Symbolic Z-matrix:
 Charge =  0 Multiplicity = 1

                         Standard orientation:
 ---------------------------------------------------------------------
 Center     Atomic      Atomic             Coordinates (Angstroms)
 Number     Number       Type             X           Y           Z
 ---------------------------------------------------------------------
      1          8           0        0.003735   -3.103659    0.000000
      2          1           0       -0.795895   -3.674708    0.000000
      3          1           0        0.803247   -3.674873    0.000000
      4          8           0        0.003735    3.103902    0.000000
      5          1           0        0.764306    3.726028    0.000000
      6          1           0       -0.831424    3.621604    0.000000
 ---------------------------------------------------------------------

 SCF Done:  E(RHF) =  -152.106779126     A.U. after   10 cycles
 E2 =    -0.5259349923D+00 EUMP2 =    -0.15263271411784D+03
 CCSD(T)
 CCSD(T)= -0.15265994757D+03

 The electronic state is 1-A'.
 Alpha  occ. eigenvalues --  -20.55172 -20.55171  -1.32468  -1.32466  -0.69875
 Alpha  occ. eigenvalues --   -0.69873  -0.55886  -0.55884  -0.49574  -0.49573
 Alpha virt. eigenvalues --    0.14437   0.14470   0.20489   0.20503   0.54691
 Alpha virt. eigenvalues --    0.54700   0.57555   0.57562   0.68315   0.68393
 Alpha virt. eigenvalues --    0.79304   0.79306   0.80749   0.80751   0.82678

 Mulliken charges:
               1
     1  O   -0.505155
     2  H    0.252488
     3  H    0.252666
     4  O   -0.505154
     5  H    0.252453
     6  H    0.252700
 Sum of Mulliken charges =  -0.00000

 Dipole moment (field-independent basis, Debye):
    X=             -0.1283    Y=             -0.0043    Z=              0.0000  Tot=              0.1284
 Quadrupole moment (field-independent basis, Debye-Ang):
   XX=             -7.8124   YY=             12.7775   ZZ=            -14.7106
   XY=             -0.2816   XZ=              0.0000   YZ=              0.0000

 Normal termination of Gaussian 16 at Sat Aug 27 06:41:11 2022.
