 Gaussian 16, Revision A.03,
 Gaussian 16:  ES64L-G16RevA.03 25-Dec-2016

 ------------------
 #p CCSD(T)/cc-pVTZ
 ------------------

 ------------
 H2O_H2O_4717
 ------------
 Symbolic Z-matrix:
 Charge =  0 Multiplicity = 1

                         Standard orientation:
 ---------------------------------------------------------------------
 Center     Atomic      Atomic             Coordinates (Angstroms)
 Number     Number       Type             X           Y           Z
 ---------------------------------------------------------------------
      1          8           0        0.051266   -3.268707    0.000000
      2          1           0       -0.749068   -3.838770    0.000000
      3          1           0        0.850073   -3.840906    0.000000
      4          8           0        0.051266    3.332275    0.000000
      5          1           0       -0.106030    4.302205    0.000000
      6          1           0       -0.815228    2.868923    0.000000
 ---------------------------------------------------------------------

 SCF Done:  E(RHF) =  -152.107334699     A.U. after   10 cycles
 E2 =    -0.5258831255D+00 EUMP2 =    -0.15263321782404D+03
 CCSD(T)
 CCSD(T)= -0.15266043964D+03

 The electronic state is 1-A'.
 Alpha  occ. eigenvalues --  -20.55538 -20.55202  -1.32836  -1.32499  -0.70243
 Alpha  occ. eigenvalues --   -0.69900  -0.56280  -0.55942  -0.49947  -0.49611
 Alpha virt. eigenvalues --    0.14131   0.14470   0.20203   0.20559   0.54320
 Alpha virt. eigenvalues --    0.54674   0.57232   0.57569   0.67911   0.68262
 Alpha virt. eigenvalues --    0.78932   0.79264   0.80365   0.80724   0.82290

 Mulliken charges:
               1
     1  O   -0.508451
     2  H    0.253225
     3  H    0.255226
     4  O   -0.508253
     5  H    0.252339
     6  H    0.255913
 Sum of Mulliken charges =  -0.00000

 Dipole moment (field-independent basis, Debye):
    X=             -1.7630    Y=             -1.1089    Z=              0.0000  Tot=              2.0828
 Quadrupole moment (field-independent basis, Debye-Ang):
   XX=             -9.4578   YY=              8.5896   ZZ=            -14.7118
   XY=             -5.2333   XZ=              0.0000   YZ=              0.0000

 Normal termination of Gaussian 16 at Sat Aug 27 08:55:37 2022.
