 Gaussian 16, Revision A.03,
 Gaussian 16:  ES64L-G16RevA.03 25-Dec-2016

 ------------------
 #p CCSD(T)/cc-pVTZ
 ------------------

 -----------
 H2O_H2O_804
 -----------
 Symbolic Z-matrix:
 Charge =  0 Multiplicity = 1

                         Standard orientation:
 ---------------------------------------------------------------------
 Center     Atomic      Atomic             Coordinates (Angstroms)
 Number     Number       Type             X           Y           Z
 ---------------------------------------------------------------------
      1          8           0        0.014784   -1.226970    0.000000
      2          1           0       -0.785378   -1.797274    0.000000
      3          1           0        0.813763   -1.798930    0.000000
      4          8           0        0.014784    1.230832    0.000000
      5          1           0        0.640076    1.988800    0.000000
      6          1           0       -0.905006    1.576512    0.000000
 ---------------------------------------------------------------------

 SCF Done:  E(RHF) =  -152.091066965     A.U. after   11 cycles
 E2 =    -0.5294751927D+00 EUMP2 =    -0.15262054215744D+03
 CCSD(T)
 CCSD(T)= -0.15264782493D+03

 The electronic state is 1-A'.
 Alpha  occ. eigenvalues --  -20.53088 -20.52974  -1.31077  -1.30058  -0.68341
 Alpha  occ. eigenvalues --   -0.67655  -0.57171  -0.49801  -0.48378  -0.46800
 Alpha virt. eigenvalues --    0.14483   0.17532   0.20554   0.22438   0.50735
 Alpha virt. eigenvalues --    0.58805   0.58904   0.63140   0.72416   0.76630
 Alpha virt. eigenvalues --    0.76968   0.79843   0.84010   0.86006   0.86473

 Mulliken charges:
               1
     1  O   -0.459997
     2  H    0.226102
     3  H    0.233124
     4  O   -0.454611
     5  H    0.222534
     6  H    0.232848
 Sum of Mulliken charges =  -0.00000

 Dipole moment (field-independent basis, Debye):
    X=             -0.4610    Y=             -0.0750    Z=              0.0000  Tot=              0.4671
 Quadrupole moment (field-independent basis, Debye-Ang):
   XX=             -8.1223   YY=             -3.0871   ZZ=            -14.7267
   XY=             -0.2166   XZ=              0.0000   YZ=              0.0000

 Normal termination of Gaussian 16 at Fri Aug 26 20:10:50 2022.
