 Gaussian 16, Revision A.03,
 Gaussian 16:  ES64L-G16RevA.03 25-Dec-2016

 ------------------
 #p CCSD(T)/cc-pVTZ
 ------------------

 -----------
 H2O_H2O_907
 -----------
 Symbolic Z-matrix:
 Charge =  0 Multiplicity = 1

                         Standard orientation:
 ---------------------------------------------------------------------
 Center     Atomic      Atomic             Coordinates (Angstroms)
 Number     Number       Type             X           Y           Z
 ---------------------------------------------------------------------
      1          8           0        0.025271   -1.275899    0.000000
      2          1           0       -0.775268   -1.845674    0.000000
      3          1           0        0.823871   -1.848387    0.000000
      4          8           0        0.025271    1.287593    0.000000
      5          1           0        0.491247    2.152678    0.000000
      6          1           0       -0.944178    1.447829    0.000000
 ---------------------------------------------------------------------

 SCF Done:  E(RHF) =  -152.095484623     A.U. after   11 cycles
 E2 =    -0.5288602677D+00 EUMP2 =    -0.15262434489044D+03
 CCSD(T)
 CCSD(T)= -0.15265162817D+03

 The electronic state is 1-A'.
 Alpha  occ. eigenvalues --  -20.53530 -20.53186  -1.31234  -1.30358  -0.68571
 Alpha  occ. eigenvalues --   -0.67911  -0.56649  -0.50959  -0.48502  -0.47183
 Alpha virt. eigenvalues --    0.14363   0.17301   0.20489   0.22496   0.51652
 Alpha virt. eigenvalues --    0.58555   0.58771   0.61832   0.71081   0.76546
 Alpha virt. eigenvalues --    0.76780   0.79009   0.83725   0.83838   0.86216

 Mulliken charges:
               1
     1  O   -0.466493
     2  H    0.227241
     3  H    0.238244
     4  O   -0.455882
     5  H    0.220663
     6  H    0.236227
 Sum of Mulliken charges =  -0.00000

 Dipole moment (field-independent basis, Debye):
    X=             -0.7966    Y=             -0.2258    Z=              0.0000  Tot=              0.8280
 Quadrupole moment (field-independent basis, Debye-Ang):
   XX=             -8.3497   YY=             -2.6238   ZZ=            -14.7217
   XY=             -0.4668   XZ=              0.0000   YZ=              0.0000

 407934\MP4DQ=-152.6329834\MP4SDQ=-152.63621\CCSD=-152.6355606\CCSD(T)=
 Normal termination of Gaussian 16 at Fri Aug 26 21:05:54 2022.
