 Gaussian 16, Revision A.03,
 Gaussian 16:  ES64L-G16RevA.03 25-Dec-2016

 ------------------
 #p CCSD(T)/cc-pVTZ
 ------------------

 ----------
 H2O_H2O_28
 ----------
 Symbolic Z-matrix:
 Charge =  0 Multiplicity = 1

                         Standard orientation:
 ---------------------------------------------------------------------
 Center     Atomic      Atomic             Coordinates (Angstroms)
 Number     Number       Type             X           Y           Z
 ---------------------------------------------------------------------
      1          8           0        0.011144   -0.815717    0.000000
      2          1           0       -0.789097   -1.385910    0.000000
      3          1           0        0.810043   -1.387787    0.000000
      4          8           0        0.011144    0.817885    0.000000
      5          1           0        0.684769    1.533241    0.000000
      6          1           0       -0.884011    1.223106    0.000000
 ---------------------------------------------------------------------

 SCF Done:  E(RHF) =  -151.922065258     A.U. after   12 cycles
 E2 =    -0.5516432235D+00 EUMP2 =    -0.15247370848175D+03
 CCSD(T)
 CCSD(T)= -0.15249800130D+03

 The electronic state is 1-A'.
 Alpha  occ. eigenvalues --  -20.51483 -20.51420  -1.36858  -1.26934  -0.71222
 Alpha  occ. eigenvalues --   -0.68720  -0.65044  -0.52958  -0.43166  -0.32670
 Alpha virt. eigenvalues --    0.14385   0.19625   0.19924   0.23084   0.50820
 Alpha virt. eigenvalues --    0.58325   0.59143   0.66170   0.68449   0.79125
 Alpha virt. eigenvalues --    0.80753   0.83836   0.83928   0.85706   0.88078

 Mulliken charges:
               1
     1  O   -0.340509
     2  H    0.163760
     3  H    0.177236
     4  O   -0.333958
     5  H    0.139167
     6  H    0.194303
 Sum of Mulliken charges =  -0.00000

 Dipole moment (field-independent basis, Debye):
    X=             -0.3219    Y=             -0.0631    Z=              0.0000  Tot=              0.3281
 Quadrupole moment (field-independent basis, Debye-Ang):
   XX=             -8.6127   YY=             -9.1764   ZZ=            -14.7751
   XY=             -0.1808   XZ=              0.0000   YZ=              0.0000

 Normal termination of Gaussian 16 at Fri Aug 26 12:04:31 2022.
