 Gaussian 16, Revision A.03,
 Gaussian 16:  ES64L-G16RevA.03 25-Dec-2016

 ------------------
 #p CCSD(T)/cc-pVTZ
 ------------------

 ------------
 H2O_H2O_4565
 ------------
 Symbolic Z-matrix:
 Charge =  0 Multiplicity = 1

                         Standard orientation:
 ---------------------------------------------------------------------
 Center     Atomic      Atomic             Coordinates (Angstroms)
 Number     Number       Type             X           Y           Z
 ---------------------------------------------------------------------
      1          8           0        0.047520   -3.195950    0.000000
      2          1           0       -0.752775   -3.766066    0.000000
      3          1           0        0.846366   -3.768096    0.000000
      4          8           0        0.047520    3.246595    0.000000
      5          1           0        0.018105    4.228756    0.000000
      6          1           0       -0.872017    2.900246    0.000000
 ---------------------------------------------------------------------

 SCF Done:  E(RHF) =  -152.107226546     A.U. after   10 cycles
 E2 =    -0.5258943536D+00 EUMP2 =    -0.15263312089963D+03
 CCSD(T)
 CCSD(T)= -0.15266034492D+03

 The electronic state is 1-A'.
 Alpha  occ. eigenvalues --  -20.55466 -20.55185  -1.32764  -1.32481  -0.70171
 Alpha  occ. eigenvalues --   -0.69883  -0.56203  -0.55920  -0.49875  -0.49592
 Alpha virt. eigenvalues --    0.14192   0.14480   0.20260   0.20558   0.54393
 Alpha virt. eigenvalues --    0.54692   0.57295   0.57578   0.67994   0.68294
 Alpha virt. eigenvalues --    0.79005   0.79283   0.80440   0.80743   0.82366

 Mulliken charges:
               1
     1  O   -0.507812
     2  H    0.252900
     3  H    0.254912
     4  O   -0.507626
     5  H    0.252112
     6  H    0.255515
 Sum of Mulliken charges =   0.00000

 Dipole moment (field-independent basis, Debye):
    X=             -1.6336    Y=             -0.8840    Z=              0.0000  Tot=              1.8574
 Quadrupole moment (field-independent basis, Debye-Ang):
   XX=             -9.2244   YY=              9.3760   ZZ=            -14.7116
   XY=             -4.5286   XZ=              0.0000   YZ=              0.0000

 Normal termination of Gaussian 16 at Sat Aug 27 08:04:57 2022.
