 Gaussian 16, Revision A.03,
 Gaussian 16:  ES64L-G16RevA.03 25-Dec-2016

 ------------------
 #p CCSD(T)/cc-pVTZ
 ------------------

 ------------
 H2O_H2O_1773
 ------------
 Symbolic Z-matrix:
 Charge =  0 Multiplicity = 1

                         Standard orientation:
 ---------------------------------------------------------------------
 Center     Atomic      Atomic             Coordinates (Angstroms)
 Number     Number       Type             X           Y           Z
 ---------------------------------------------------------------------
      1          8           0        0.057142   -1.676509    0.000000
      2          1           0       -0.744046   -2.245370    0.000000
      3          1           0        0.855090   -2.249906    0.000000
      4          8           0        0.057142    1.782940    0.000000
      5          1           0       -0.458102    2.619618    0.000000
      6          1           0       -0.567216    1.024203    0.000000
 ---------------------------------------------------------------------

 SCF Done:  E(RHF) =  -152.109402606     A.U. after   10 cycles
 E2 =    -0.5266026209D+00 EUMP2 =    -0.15263600522740D+03
 CCSD(T)
 CCSD(T)= -0.15266312288D+03

 The electronic state is 1-A'.
 Alpha  occ. eigenvalues --  -20.56338 -20.53802  -1.33606  -1.31110  -0.71008
 Alpha  occ. eigenvalues --   -0.68494  -0.57084  -0.54593  -0.50729  -0.48245
 Alpha virt. eigenvalues --    0.12959   0.16716   0.19674   0.24522   0.52961
 Alpha virt. eigenvalues --    0.55685   0.56569   0.58105   0.67085   0.74959
 Alpha virt. eigenvalues --    0.77170   0.77354   0.79687   0.80988   0.84226

 Mulliken charges:
               1
     1  O   -0.498445
     2  H    0.247760
     3  H    0.258901
     4  O   -0.515115
     5  H    0.242460
     6  H    0.264440
 Sum of Mulliken charges =  -0.00000

 Dipole moment (field-independent basis, Debye):
    X=             -1.9059    Y=             -2.0246    Z=              0.0000  Tot=              2.7806
 Quadrupole moment (field-independent basis, Debye-Ang):
   XX=             -9.8520   YY=             -2.7878   ZZ=            -14.7219
   XY=             -3.5685   XZ=              0.0000   YZ=              0.0000

 Normal termination of Gaussian 16 at Sat Aug 27 06:42:31 2022.
