 Gaussian 16, Revision A.03,
 Gaussian 16:  ES64L-G16RevA.03 25-Dec-2016

 ------------------
 #p CCSD(T)/cc-pVTZ
 ------------------

 -----------
 H2O_H2O_473
 -----------
 Symbolic Z-matrix:
 Charge =  0 Multiplicity = 1

                         Standard orientation:
 ---------------------------------------------------------------------
 Center     Atomic      Atomic             Coordinates (Angstroms)
 Number     Number       Type             X           Y           Z
 ---------------------------------------------------------------------
      1          8           0        0.057243   -0.985234    0.000000
      2          1           0       -0.745018   -1.552582    0.000000
      3          1           0        0.854106   -1.560138    0.000000
      4          8           0        0.057243    1.091450    0.000000
      5          1           0       -0.456420    1.929099    0.000000
      6          1           0       -0.568548    0.333892    0.000000
 ---------------------------------------------------------------------

 SCF Done:  E(RHF) =  -152.059929633     A.U. after   11 cycles
 E2 =    -0.5365292376D+00 EUMP2 =    -0.15259645887061D+03
 CCSD(T)
 CCSD(T)= -0.15262266641D+03

 The electronic state is 1-A'.
 Alpha  occ. eigenvalues --  -20.57013 -20.49464  -1.36921  -1.27467  -0.74417
 Alpha  occ. eigenvalues --   -0.70648  -0.53155  -0.52147  -0.51353  -0.44404
 Alpha virt. eigenvalues --    0.12767   0.18656   0.19486   0.27313   0.49320
 Alpha virt. eigenvalues --    0.54713   0.62408   0.66731   0.72075   0.74358
 Alpha virt. eigenvalues --    0.77528   0.80646   0.83669   0.85209   0.87511

 Mulliken charges:
               1
     1  O   -0.385895
     2  H    0.208589
     3  H    0.240655
     4  O   -0.519714
     5  H    0.191737
     6  H    0.264628
 Sum of Mulliken charges =  -0.00000

 Dipole moment (field-independent basis, Debye):
    X=             -1.6763    Y=             -2.5427    Z=              0.0000  Tot=              3.0455
 Quadrupole moment (field-independent basis, Debye-Ang):
   XX=             -9.8325   YY=             -6.8405   ZZ=            -14.6505
   XY=             -2.2520   XZ=              0.0000   YZ=              0.0000

 Normal termination of Gaussian 16 at Fri Aug 26 16:47:25 2022.
