 Gaussian 16, Revision A.03,
 Gaussian 16:  ES64L-G16RevA.03 25-Dec-2016

 ------------------
 #p CCSD(T)/cc-pVTZ
 ------------------

 -----------
 H2O_H2O_839
 -----------
 Symbolic Z-matrix:
 Charge =  0 Multiplicity = 1

                         Standard orientation:
 ---------------------------------------------------------------------
 Center     Atomic      Atomic             Coordinates (Angstroms)
 Number     Number       Type             X           Y           Z
 ---------------------------------------------------------------------
      1          8           0        0.045381   -1.218244    0.000000
      2          1           0       -0.755982   -1.786859    0.000000
      3          1           0        0.843152   -1.791888    0.000000
      4          8           0        0.045381    1.262649    0.000000
      5          1           0        0.082108    2.244563    0.000000
      6          1           0       -0.895374    0.978946    0.000000
 ---------------------------------------------------------------------

 SCF Done:  E(RHF) =  -152.096589481     A.U. after   11 cycles
 E2 =    -0.5293866740D+00 EUMP2 =    -0.15262597615500D+03
 CCSD(T)
 CCSD(T)= -0.15265316611D+03

 The electronic state is 1-A'.
 Alpha  occ. eigenvalues --  -20.54454 -20.52923  -1.32169  -1.30131  -0.69543
 Alpha  occ. eigenvalues --   -0.67908  -0.56492  -0.51734  -0.49343  -0.47067
 Alpha virt. eigenvalues --    0.13943   0.17473   0.20137   0.23433   0.53257
 Alpha virt. eigenvalues --    0.57754   0.58271   0.60356   0.70787   0.75515
 Alpha virt. eigenvalues --    0.77737   0.79551   0.83250   0.85401   0.85424

 Mulliken charges:
               1
     1  O   -0.469335
     2  H    0.227576
     3  H    0.245746
     4  O   -0.461024
     5  H    0.211581
     6  H    0.245457
 Sum of Mulliken charges =  -0.00000

 Dipole moment (field-independent basis, Debye):
    X=             -1.4146    Y=             -0.8736    Z=              0.0000  Tot=              1.6626
 Quadrupole moment (field-independent basis, Debye-Ang):
   XX=             -9.1960   YY=             -3.4815   ZZ=            -14.7244
   XY=             -1.2305   XZ=              0.0000   YZ=              0.0000

 Normal termination of Gaussian 16 at Fri Aug 26 20:28:13 2022.
