 Gaussian 16, Revision A.03,
 Gaussian 16:  ES64L-G16RevA.03 25-Dec-2016

 ------------------
 #p CCSD(T)/cc-pVTZ
 ------------------

 ------------
 H2O_H2O_3556
 ------------
 Symbolic Z-matrix:
 Charge =  0 Multiplicity = 1

                         Standard orientation:
 ---------------------------------------------------------------------
 Center     Atomic      Atomic             Coordinates (Angstroms)
 Number     Number       Type             X           Y           Z
 ---------------------------------------------------------------------
      1          8           0        0.021859   -2.686912    0.000000
      2          1           0       -0.778111   -3.257485    0.000000
      3          1           0        0.821031   -3.258603    0.000000
      4          8           0        0.021859    2.695577    0.000000
      5          1           0        0.542587    3.528852    0.000000
      6          1           0       -0.935256    2.917920    0.000000
 ---------------------------------------------------------------------

 SCF Done:  E(RHF) =  -152.106514003     A.U. after   10 cycles
 E2 =    -0.5259759457D+00 EUMP2 =    -0.15263248994888D+03
 CCSD(T)
 CCSD(T)= -0.15265972800D+03

 The electronic state is 1-A'.
 Alpha  occ. eigenvalues --  -20.55080 -20.55011  -1.32375  -1.32305  -0.69783
 Alpha  occ. eigenvalues --   -0.69712  -0.55780  -0.55710  -0.49480  -0.49410
 Alpha virt. eigenvalues --    0.14431   0.14679   0.20526   0.20648   0.54764
 Alpha virt. eigenvalues --    0.54886   0.57623   0.57705   0.68065   0.68972
 Alpha virt. eigenvalues --    0.79397   0.79466   0.80840   0.80931   0.82763

 Mulliken charges:
               1
     1  O   -0.503612
     2  H    0.251027
     3  H    0.252586
     4  O   -0.503504
     5  H    0.250681
     6  H    0.252822
 Sum of Mulliken charges =  -0.00000

 Dipole moment (field-independent basis, Debye):
    X=             -0.7486    Y=             -0.1522    Z=              0.0000  Tot=              0.7639
 Quadrupole moment (field-independent basis, Debye-Ang):
   XX=             -8.1092   YY=              8.9544   ZZ=            -14.7103
   XY=             -1.3996   XZ=              0.0000   YZ=              0.0000

 Normal termination of Gaussian 16 at Sat Aug 27 01:28:09 2022.
