 Gaussian 16, Revision A.03,
 Gaussian 16:  ES64L-G16RevA.03 25-Dec-2016

 ------------------
 #p CCSD(T)/cc-pVTZ
 ------------------

 ------------
 H2O_H2O_1353
 ------------
 Symbolic Z-matrix:
 Charge =  0 Multiplicity = 1

                         Standard orientation:
 ---------------------------------------------------------------------
 Center     Atomic      Atomic             Coordinates (Angstroms)
 Number     Number       Type             X           Y           Z
 ---------------------------------------------------------------------
      1          8           0        0.011143   -1.520393    0.000000
      2          1           0       -0.788788   -2.091021    0.000000
      3          1           0        0.810354   -2.092029    0.000000
      4          8           0        0.011143    1.522574    0.000000
      5          1           0        0.684379    2.238296    0.000000
      6          1           0       -0.884232    1.927308    0.000000
 ---------------------------------------------------------------------

 SCF Done:  E(RHF) =  -152.101694611     A.U. after   10 cycles
 E2 =    -0.5273142484D+00 EUMP2 =    -0.15262900885946D+03
 CCSD(T)
 CCSD(T)= -0.15265630089D+03

 The electronic state is 1-A'.
 Alpha  occ. eigenvalues --  -20.53916 -20.53864  -1.31300  -1.31087  -0.68711
 Alpha  occ. eigenvalues --   -0.68544  -0.55590  -0.53103  -0.48493  -0.48051
 Alpha virt. eigenvalues --    0.14360   0.16667   0.20559   0.21837   0.51862
 Alpha virt. eigenvalues --    0.58300   0.58629   0.59645   0.65529   0.76328
 Alpha virt. eigenvalues --    0.77860   0.78103   0.79267   0.82593   0.86080

 Mulliken charges:
               1
     1  O   -0.473745
     2  H    0.235065
     3  H    0.238726
     4  O   -0.473005
     5  H    0.234855
     6  H    0.238104
 Sum of Mulliken charges =  -0.00000

 Dipole moment (field-independent basis, Debye):
    X=             -0.3653    Y=             -0.0411    Z=              0.0000  Tot=              0.3676
 Quadrupole moment (field-independent basis, Debye-Ang):
   XX=             -7.9707   YY=             -0.2819   ZZ=            -14.7102
   XY=             -0.2570   XZ=              0.0000   YZ=              0.0000

 Normal termination of Gaussian 16 at Sat Aug 27 04:10:43 2022.
