 Gaussian 16, Revision A.03,
 Gaussian 16:  ES64L-G16RevA.03 25-Dec-2016

 ------------------
 #p CCSD(T)/cc-pVTZ
 ------------------

 ------------
 H2O_H2O_2918
 ------------
 Symbolic Z-matrix:
 Charge =  0 Multiplicity = 1

                         Standard orientation:
 ---------------------------------------------------------------------
 Center     Atomic      Atomic             Coordinates (Angstroms)
 Number     Number       Type             X           Y           Z
 ---------------------------------------------------------------------
      1          8           0        0.052834   -2.307739    0.000000
      2          1           0       -0.747843   -2.877320    0.000000
      3          1           0        0.851296   -2.880420    0.000000
      4          8           0        0.052834    2.378048    0.000000
      5          1           0       -0.166984    3.335746    0.000000
      6          1           0       -0.781813    1.859521    0.000000
 ---------------------------------------------------------------------

 SCF Done:  E(RHF) =  -152.107308811     A.U. after   10 cycles
 E2 =    -0.5259856467D+00 EUMP2 =    -0.15263329445809D+03
 CCSD(T)
 CCSD(T)= -0.15266050698D+03

 The electronic state is 1-A'.
 Alpha  occ. eigenvalues --  -20.55533 -20.54745  -1.32826  -1.32038  -0.70234
 Alpha  occ. eigenvalues --   -0.69426  -0.56263  -0.55475  -0.49936  -0.49153
 Alpha virt. eigenvalues --    0.13629   0.15275   0.20128   0.21258   0.54164
 Alpha virt. eigenvalues --    0.54921   0.57255   0.57931   0.66646   0.70970
 Alpha virt. eigenvalues --    0.78947   0.79712   0.80076   0.81032   0.82798

 Mulliken charges:
               1
     1  O   -0.507333
     2  H    0.251125
     3  H    0.256583
     4  O   -0.507330
     5  H    0.248727
     6  H    0.258227
 Sum of Mulliken charges =  -0.00000

 Dipole moment (field-independent basis, Debye):
    X=             -1.8019    Y=             -1.2538    Z=              0.0000  Tot=              2.1952
 Quadrupole moment (field-independent basis, Debye-Ang):
   XX=             -9.5592   YY=              2.5834   ZZ=            -14.7127
   XY=             -3.7853   XZ=              0.0000   YZ=              0.0000

 Normal termination of Gaussian 16 at Fri Aug 26 17:26:57 2022.
