 Gaussian 16, Revision A.03,
 Gaussian 16:  ES64L-G16RevA.03 25-Dec-2016

 ------------------
 #p CCSD(T)/cc-pVTZ
 ------------------

 ------------
 H2O_H2O_1118
 ------------
 Symbolic Z-matrix:
 Charge =  0 Multiplicity = 1

                         Standard orientation:
 ---------------------------------------------------------------------
 Center     Atomic      Atomic             Coordinates (Angstroms)
 Number     Number       Type             X           Y           Z
 ---------------------------------------------------------------------
      1          8           0        0.052881   -1.350508    0.000000
      2          1           0       -0.748558   -1.919015    0.000000
      3          1           0        0.850575   -1.924258    0.000000
      4          8           0        0.052881    1.420675    0.000000
      5          1           0       -0.165654    2.378667    0.000000
      6          1           0       -0.782460    0.903266    0.000000
 ---------------------------------------------------------------------

 SCF Done:  E(RHF) =  -152.104546985     A.U. after   10 cycles
 E2 =    -0.5281093602D+00 EUMP2 =    -0.15263265634527D+03
 CCSD(T)
 CCSD(T)= -0.15265980218D+03

 The electronic state is 1-A'.
 Alpha  occ. eigenvalues --  -20.55526 -20.53177  -1.32941  -1.30444  -0.70354
 Alpha  occ. eigenvalues --   -0.68053  -0.56249  -0.53615  -0.50057  -0.47527
 Alpha virt. eigenvalues --    0.13518   0.17319   0.19884   0.23989   0.53123
 Alpha virt. eigenvalues --    0.57172   0.57673   0.58738   0.69948   0.75428
 Alpha virt. eigenvalues --    0.75626   0.78499   0.81528   0.82600   0.84755

 Mulliken charges:
               1
     1  O   -0.479869
     2  H    0.235998
     3  H    0.253279
     4  O   -0.489656
     5  H    0.225828
     6  H    0.254421
 Sum of Mulliken charges =  -0.00000

 Dipole moment (field-independent basis, Debye):
    X=             -1.6956    Y=             -1.3823    Z=              0.0000  Tot=              2.1876
 Quadrupole moment (field-independent basis, Debye-Ang):
   XX=             -9.5949   YY=             -3.0529   ZZ=            -14.7236
   XY=             -2.1063   XZ=              0.0000   YZ=              0.0000

 Normal termination of Gaussian 16 at Sat Aug 27 02:16:22 2022.
