 Gaussian 16, Revision A.03,
 Gaussian 16:  ES64L-G16RevA.03 25-Dec-2016

 ------------------
 #p CCSD(T)/cc-pVTZ
 ------------------

 ------------
 H2O_H2O_4373
 ------------
 Symbolic Z-matrix:
 Charge =  0 Multiplicity = 1

                         Standard orientation:
 ---------------------------------------------------------------------
 Center     Atomic      Atomic             Coordinates (Angstroms)
 Number     Number       Type             X           Y           Z
 ---------------------------------------------------------------------
      1          8           0        0.057075   -3.059208    0.000000
      2          1           0       -0.743395   -3.629079    0.000000
      3          1           0        0.855745   -3.631600    0.000000
      4          8           0        0.057075    3.165784    0.000000
      5          1           0       -0.459223    4.001812    0.000000
      6          1           0       -0.566327    2.406259    0.000000
 ---------------------------------------------------------------------

 SCF Done:  E(RHF) =  -152.107666479     A.U. after   10 cycles
 E2 =    -0.5258586845D+00 EUMP2 =    -0.15263352516335D+03
 CCSD(T)
 CCSD(T)= -0.15266073962D+03

 The electronic state is 1-A'.
 Alpha  occ. eigenvalues --  -20.55753 -20.55120  -1.33053  -1.32420  -0.70459
 Alpha  occ. eigenvalues --   -0.69818  -0.56512  -0.55873  -0.50167  -0.49535
 Alpha virt. eigenvalues --    0.13918   0.14593   0.20030   0.20714   0.54098
 Alpha virt. eigenvalues --    0.54751   0.57041   0.57670   0.67607   0.68359
 Alpha virt. eigenvalues --    0.78714   0.79334   0.80139   0.80775   0.82120

 Mulliken charges:
               1
     1  O   -0.510428
     2  H    0.253982
     3  H    0.256450
     4  O   -0.510027
     5  H    0.252334
     6  H    0.257689
 Sum of Mulliken charges =   0.00000

 Dipole moment (field-independent basis, Debye):
    X=             -1.9615    Y=             -1.8639    Z=              0.0000  Tot=              2.7059
 Quadrupole moment (field-independent basis, Debye-Ang):
   XX=             -9.8550   YY=              3.1504   ZZ=            -14.7127
   XY=             -6.2324   XZ=              0.0000   YZ=              0.0000

 Normal termination of Gaussian 16 at Sat Aug 27 06:56:59 2022.
