 Gaussian 16, Revision A.03,
 Gaussian 16:  ES64L-G16RevA.03 25-Dec-2016

 ------------------
 #p CCSD(T)/cc-pVTZ
 ------------------

 -----------
 H2O_H2O_891
 -----------
 Symbolic Z-matrix:
 Charge =  0 Multiplicity = 1

                         Standard orientation:
 ---------------------------------------------------------------------
 Center     Atomic      Atomic             Coordinates (Angstroms)
 Number     Number       Type             X           Y           Z
 ---------------------------------------------------------------------
      1          8           0        0.049557   -1.238115    0.000000
      2          1           0       -0.751929   -1.806555    0.000000
      3          1           0        0.847204   -1.811931    0.000000
      4          8           0        0.049557    1.294895    0.000000
      5          1           0       -0.041983    2.273223    0.000000
      6          1           0       -0.846206    0.891021    0.000000
 ---------------------------------------------------------------------

 SCF Done:  E(RHF) =  -152.099160790     A.U. after   11 cycles
 E2 =    -0.5291585965D+00 EUMP2 =    -0.15262831938633D+03
 CCSD(T)
 CCSD(T)= -0.15265548076D+03

 The electronic state is 1-A'.
 Alpha  occ. eigenvalues --  -20.54935 -20.52904  -1.32569  -1.30142  -0.69964
 Alpha  occ. eigenvalues --   -0.67963  -0.56248  -0.52490  -0.49705  -0.47141
 Alpha virt. eigenvalues --    0.13746   0.17513   0.20004   0.23777   0.53053
 Alpha virt. eigenvalues --    0.57460   0.58672   0.59674   0.70877   0.75159
 Alpha virt. eigenvalues --    0.77385   0.80165   0.83036   0.84005   0.85054

 Mulliken charges:
               1
     1  O   -0.471099
     2  H    0.229970
     3  H    0.248382
     4  O   -0.471698
     5  H    0.215160
     6  H    0.249285
 Sum of Mulliken charges =  -0.00000

 Dipole moment (field-independent basis, Debye):
    X=             -1.5539    Y=             -1.1245    Z=              0.0000  Tot=              1.9181
 Quadrupole moment (field-independent basis, Debye-Ang):
   XX=             -9.4170   YY=             -3.5372   ZZ=            -14.7241
   XY=             -1.5755   XZ=              0.0000   YZ=              0.0000

 Normal termination of Gaussian 16 at Fri Aug 26 20:55:06 2022.
