 Gaussian 16, Revision A.03,
 Gaussian 16:  ES64L-G16RevA.03 25-Dec-2016

 ------------------
 #p CCSD(T)/cc-pVTZ
 ------------------

 ----------
 H2O_H2O_23
 ----------
 Symbolic Z-matrix:
 Charge =  0 Multiplicity = 1

                         Standard orientation:
 ---------------------------------------------------------------------
 Center     Atomic      Atomic             Coordinates (Angstroms)
 Number     Number       Type             X           Y           Z
 ---------------------------------------------------------------------
      1          8           0        0.057318   -0.745992    0.000000
      2          1           0       -0.745745   -1.312204    0.000000
      3          1           0        0.853367   -1.322023    0.000000
      4          8           0        0.057318    0.852046    0.000000
      5          1           0       -0.455159    1.690421    0.000000
      6          1           0       -0.569544    0.095375    0.000000
 ---------------------------------------------------------------------

 SCF Done:  E(RHF) =  -151.821495563     A.U. after   12 cycles
 E2 =    -0.5571121911D+00 EUMP2 =    -0.15237860775452D+03
 CCSD(T)
 CCSD(T)= -0.15240166187D+03

 The electronic state is 1-A'.
 Alpha  occ. eigenvalues --  -20.58113 -20.45475  -1.47824  -1.24471  -0.83700
 Alpha  occ. eigenvalues --   -0.75498  -0.58868  -0.49344  -0.41254  -0.37870
 Alpha virt. eigenvalues --    0.12276   0.17004   0.21432   0.26880   0.48151
 Alpha virt. eigenvalues --    0.52091   0.63356   0.70919   0.73213   0.74662
 Alpha virt. eigenvalues --    0.76819   0.78445   0.84958   0.85088   0.89697

 Mulliken charges:
               1
     1  O   -0.200810
     2  H    0.147006
     3  H    0.211358
     4  O   -0.538026
     5  H    0.106987
     6  H    0.273485
 Sum of Mulliken charges =  -0.00000

 Dipole moment (field-independent basis, Debye):
    X=             -1.3740    Y=             -3.0291    Z=              0.0000  Tot=              3.3262
 Quadrupole moment (field-independent basis, Debye-Ang):
   XX=             -9.8719   YY=            -10.0493   ZZ=            -14.4634
   XY=             -1.6717   XZ=              0.0000   YZ=              0.0000

 Normal termination of Gaussian 16 at Fri Aug 26 11:58:46 2022.
