 Gaussian 16, Revision A.03,
 Gaussian 16:  ES64L-G16RevA.03 25-Dec-2016

 ------------------
 #p CCSD(T)/cc-pVTZ
 ------------------

 ------------
 H2O_H2O_3196
 ------------
 Symbolic Z-matrix:
 Charge =  0 Multiplicity = 1

                         Standard orientation:
 ---------------------------------------------------------------------
 Center     Atomic      Atomic             Coordinates (Angstroms)
 Number     Number       Type             X           Y           Z
 ---------------------------------------------------------------------
      1          8           0        0.056105   -2.442364    0.000000
      2          1           0       -0.744572   -3.011946    0.000000
      3          1           0        0.854567   -3.015045    0.000000
      4          8           0        0.056105    2.534089    0.000000
      5          1           0       -0.346328    3.430501    0.000000
      6          1           0       -0.661345    1.862693    0.000000
 ---------------------------------------------------------------------

 SCF Done:  E(RHF) =  -152.107700675     A.U. after   10 cycles
 E2 =    -0.5259242661D+00 EUMP2 =    -0.15263362494124D+03
 CCSD(T)
 CCSD(T)= -0.15266083144D+03

 The electronic state is 1-A'.
 Alpha  occ. eigenvalues --  -20.55724 -20.54821  -1.33020  -1.32119  -0.70426
 Alpha  occ. eigenvalues --   -0.69507  -0.56477  -0.55569  -0.50133  -0.49236
 Alpha virt. eigenvalues --    0.13569   0.15133   0.20026   0.21188   0.54072
 Alpha virt. eigenvalues --    0.54907   0.57086   0.57869   0.66907   0.69827
 Alpha virt. eigenvalues --    0.78754   0.79625   0.79952   0.80513   0.82785

 Mulliken charges:
               1
     1  O   -0.509898
     2  H    0.252707
     3  H    0.257490
     4  O   -0.509645
     5  H    0.249990
     6  H    0.259355
 Sum of Mulliken charges =  -0.00000

 Dipole moment (field-independent basis, Debye):
    X=             -1.9183    Y=             -1.6280    Z=              0.0000  Tot=              2.5160
 Quadrupole moment (field-independent basis, Debye-Ang):
   XX=             -9.7826   YY=              1.7301   ZZ=            -14.7134
   XY=             -4.6721   XZ=              0.0000   YZ=              0.0000

 Normal termination of Gaussian 16 at Fri Aug 26 20:17:04 2022.
