 Gaussian 16, Revision A.03,
 Gaussian 16:  ES64L-G16RevA.03 25-Dec-2016

 ------------------
 #p CCSD(T)/cc-pVTZ
 ------------------

 ------------
 H2O_H2O_1102
 ------------
 Symbolic Z-matrix:
 Charge =  0 Multiplicity = 1

                         Standard orientation:
 ---------------------------------------------------------------------
 Center     Atomic      Atomic             Coordinates (Angstroms)
 Number     Number       Type             X           Y           Z
 ---------------------------------------------------------------------
      1          8           0        0.007455   -1.388092    0.000000
      2          1           0       -0.792380   -1.958855    0.000000
      3          1           0        0.806762   -1.959593    0.000000
      4          8           0        0.007455    1.389062    0.000000
      5          1           0        0.725948    2.059341    0.000000
      6          1           0       -0.859611    1.851344    0.000000
 ---------------------------------------------------------------------

 SCF Done:  E(RHF) =  -152.098641179     A.U. after   11 cycles
 E2 =    -0.5279834678D+00 EUMP2 =    -0.15262662464651D+03
 CCSD(T)
 CCSD(T)= -0.15265394146D+03

 The electronic state is 1-A'.
 Alpha  occ. eigenvalues --  -20.53551 -20.53526  -1.31111  -1.30689  -0.68488
 Alpha  occ. eigenvalues --   -0.68187  -0.56044  -0.51899  -0.48353  -0.47570
 Alpha virt. eigenvalues --    0.14443   0.17052   0.20563   0.22071   0.50989
 Alpha virt. eigenvalues --    0.58525   0.58769   0.61338   0.70333   0.76395
 Alpha virt. eigenvalues --    0.77123   0.78237   0.79393   0.83369   0.86290

 Mulliken charges:
               1
     1  O   -0.466778
     2  H    0.231833
     3  H    0.234884
     4  O   -0.465961
     5  H    0.231694
     6  H    0.234327
 Sum of Mulliken charges =  -0.00000

 Dipole moment (field-independent basis, Debye):
    X=             -0.2401    Y=             -0.0184    Z=              0.0000  Tot=              0.2408
 Quadrupole moment (field-independent basis, Debye-Ang):
   XX=             -7.9633   YY=             -1.4888   ZZ=            -14.7145
   XY=             -0.1381   XZ=              0.0000   YZ=              0.0000

 Normal termination of Gaussian 16 at Sat Aug 27 02:08:52 2022.
