 Gaussian 16, Revision A.03,
 Gaussian 16:  ES64L-G16RevA.03 25-Dec-2016

 ------------------
 #p CCSD(T)/cc-pVTZ
 ------------------

 ------------
 H2O_H2O_4840
 ------------
 Symbolic Z-matrix:
 Charge =  0 Multiplicity = 1

                         Standard orientation:
 ---------------------------------------------------------------------
 Center     Atomic      Atomic             Coordinates (Angstroms)
 Number     Number       Type             X           Y           Z
 ---------------------------------------------------------------------
      1          8           0        0.047519   -3.342202    0.000000
      2          1           0       -0.752745   -3.912363    0.000000
      3          1           0        0.846396   -3.914304    0.000000
      4          8           0        0.047519    3.392852    0.000000
      5          1           0        0.018050    4.375012    0.000000
      6          1           0       -0.872000    3.046452    0.000000
 ---------------------------------------------------------------------

 SCF Done:  E(RHF) =  -152.107258344     A.U. after   10 cycles
 E2 =    -0.5258884796D+00 EUMP2 =    -0.15263314682406D+03
 CCSD(T)
 CCSD(T)= -0.15266037036D+03

 The electronic state is 1-A'.
 Alpha  occ. eigenvalues --  -20.55482 -20.55225  -1.32780  -1.32522  -0.70186
 Alpha  occ. eigenvalues --   -0.69924  -0.56220  -0.55962  -0.49891  -0.49633
 Alpha virt. eigenvalues --    0.14182   0.14439   0.20249   0.20519   0.54377
 Alpha virt. eigenvalues --    0.54649   0.57282   0.57540   0.67980   0.68243
 Alpha virt. eigenvalues --    0.78989   0.79243   0.80423   0.80698   0.82348

 Mulliken charges:
               1
     1  O   -0.507994
     2  H    0.253114
     3  H    0.254881
     4  O   -0.507840
     5  H    0.252416
     6  H    0.255424
 Sum of Mulliken charges =  -0.00000

 Dipole moment (field-independent basis, Debye):
    X=             -1.6345    Y=             -0.8829    Z=              0.0000  Tot=              1.8577
 Quadrupole moment (field-independent basis, Debye-Ang):
   XX=             -9.2243   YY=             10.2845   ZZ=            -14.7116
   XY=             -4.7660   XZ=              0.0000   YZ=              0.0000

 Normal termination of Gaussian 16 at Sat Aug 27 09:37:56 2022.
