 Gaussian 16, Revision A.03,
 Gaussian 16:  ES64L-G16RevA.03 25-Dec-2016

 ------------------
 #p CCSD(T)/cc-pVTZ
 ------------------

 ------------
 H2O_H2O_3293
 ------------
 Symbolic Z-matrix:
 Charge =  0 Multiplicity = 1

                         Standard orientation:
 ---------------------------------------------------------------------
 Center     Atomic      Atomic             Coordinates (Angstroms)
 Number     Number       Type             X           Y           Z
 ---------------------------------------------------------------------
      1          8           0        0.052829   -2.507169    0.000000
      2          1           0       -0.747762   -3.076872    0.000000
      3          1           0        0.851378   -3.079729    0.000000
      4          8           0        0.052829    2.577495    0.000000
      5          1           0       -0.167135    3.535159    0.000000
      6          1           0       -0.781739    2.058840    0.000000
 ---------------------------------------------------------------------

 SCF Done:  E(RHF) =  -152.107310287     A.U. after   10 cycles
 E2 =    -0.5259355579D+00 EUMP2 =    -0.15263324584486D+03
 CCSD(T)
 CCSD(T)= -0.15266046374D+03

 The electronic state is 1-A'.
 Alpha  occ. eigenvalues --  -20.55535 -20.54882  -1.32831  -1.32177  -0.70238
 Alpha  occ. eigenvalues --   -0.69569  -0.56272  -0.55616  -0.49942  -0.49291
 Alpha virt. eigenvalues --    0.13845   0.14987   0.20158   0.20995   0.54262
 Alpha virt. eigenvalues --    0.54945   0.57237   0.57830   0.67215   0.69552
 Alpha virt. eigenvalues --    0.78941   0.79576   0.80272   0.80794   0.82741

 Mulliken charges:
               1
     1  O   -0.508121
     2  H    0.251932
     3  H    0.256303
     4  O   -0.507685
     5  H    0.249911
     6  H    0.257660
 Sum of Mulliken charges =  -0.00000

 Dipole moment (field-independent basis, Debye):
    X=             -1.8073    Y=             -1.2438    Z=              0.0000  Tot=              2.1939
 Quadrupole moment (field-independent basis, Debye-Ang):
   XX=             -9.5589   YY=              3.6942   ZZ=            -14.7123
   XY=             -4.1413   XZ=              0.0000   YZ=              0.0000

 Normal termination of Gaussian 16 at Fri Aug 26 21:07:17 2022.
