 Gaussian 16, Revision A.03,
 Gaussian 16:  ES64L-G16RevA.03 25-Dec-2016

 ------------------
 #p CCSD(T)/cc-pVTZ
 ------------------

 ------------
 H2O_H2O_2078
 ------------
 Symbolic Z-matrix:
 Charge =  0 Multiplicity = 1

                         Standard orientation:
 ---------------------------------------------------------------------
 Center     Atomic      Atomic             Coordinates (Angstroms)
 Number     Number       Type             X           Y           Z
 ---------------------------------------------------------------------
      1          8           0        0.011143   -1.905973    0.000000
      2          1           0       -0.788715   -2.476703    0.000000
      3          1           0        0.810426   -2.477507    0.000000
      4          8           0        0.011143    1.908157    0.000000
      5          1           0        0.684288    2.623965    0.000000
      6          1           0       -0.884284    2.312776    0.000000
 ---------------------------------------------------------------------

 SCF Done:  E(RHF) =  -152.104836981     A.U. after   10 cycles
 E2 =    -0.5264028373D+00 EUMP2 =    -0.15263123981791D+03
 CCSD(T)
 CCSD(T)= -0.15265848847D+03

 The electronic state is 1-A'.
 Alpha  occ. eigenvalues --  -20.54499 -20.54463  -1.31784  -1.31740  -0.69204
 Alpha  occ. eigenvalues --   -0.69158  -0.55331  -0.54787  -0.48899  -0.48815
 Alpha virt. eigenvalues --    0.14185   0.15792   0.20614   0.21229   0.54013
 Alpha virt. eigenvalues --    0.56548   0.57931   0.58247   0.61567   0.75295
 Alpha virt. eigenvalues --    0.79397   0.80343   0.80581   0.80980   0.82527

 Mulliken charges:
               1
     1  O   -0.491484
     2  H    0.244774
     3  H    0.246757
     4  O   -0.491445
     5  H    0.244517
     6  H    0.246881
 Sum of Mulliken charges =   0.00000

 Dipole moment (field-independent basis, Debye):
    X=             -0.3752    Y=             -0.0399    Z=              0.0000  Tot=              0.3773
 Quadrupole moment (field-independent basis, Debye-Ang):
   XX=             -7.9196   YY=              3.0163   ZZ=            -14.7093
   XY=             -0.3975   XZ=              0.0000   YZ=              0.0000

 Normal termination of Gaussian 16 at Sat Aug 27 08:27:37 2022.
