 Gaussian 16, Revision A.03,
 Gaussian 16:  ES64L-G16RevA.03 25-Dec-2016

 ------------------
 #p CCSD(T)/cc-pVTZ
 ------------------

 -----------
 H2O_H2O_489
 -----------
 Symbolic Z-matrix:
 Charge =  0 Multiplicity = 1

                         Standard orientation:
 ---------------------------------------------------------------------
 Center     Atomic      Atomic             Coordinates (Angstroms)
 Number     Number       Type             X           Y           Z
 ---------------------------------------------------------------------
      1          8           0        0.045393   -1.032128    0.000000
      2          1           0       -0.756285   -1.600298    0.000000
      3          1           0        0.842846   -1.606214    0.000000
      4          8           0        0.045393    1.076482    0.000000
      5          1           0        0.082665    2.058377    0.000000
      6          1           0       -0.895519    0.793302    0.000000
 ---------------------------------------------------------------------

 SCF Done:  E(RHF) =  -152.072385176     A.U. after   11 cycles
 E2 =    -0.5333495982D+00 EUMP2 =    -0.15260573477407D+03
 CCSD(T)
 CCSD(T)= -0.15263269198D+03

 The electronic state is 1-A'.
 Alpha  occ. eigenvalues --  -20.53779 -20.52085  -1.32835  -1.29049  -0.70064
 Alpha  occ. eigenvalues --   -0.67958  -0.57369  -0.49893  -0.48340  -0.45814
 Alpha virt. eigenvalues --    0.14036   0.18047   0.20048   0.23795   0.53022
 Alpha virt. eigenvalues --    0.57472   0.58607   0.62739   0.71602   0.75795
 Alpha virt. eigenvalues --    0.79653   0.82153   0.83218   0.85101   0.88046

 Mulliken charges:
               1
     1  O   -0.443735
     2  H    0.212996
     3  H    0.233143
     4  O   -0.427429
     5  H    0.183668
     6  H    0.241356
 Sum of Mulliken charges =  -0.00000

 Dipole moment (field-independent basis, Debye):
    X=             -1.3387    Y=             -0.8985    Z=              0.0000  Tot=              1.6122
 Quadrupole moment (field-independent basis, Debye-Ang):
   XX=             -9.2479   YY=             -5.2688   ZZ=            -14.7193
   XY=             -0.9676   XZ=              0.0000   YZ=              0.0000

 Normal termination of Gaussian 16 at Fri Aug 26 16:55:57 2022.
