 Gaussian 16, Revision A.03,
 Gaussian 16:  ES64L-G16RevA.03 25-Dec-2016

 ------------------
 #p CCSD(T)/cc-pVTZ
 ------------------

 -----------
 H2O_H2O_143
 -----------
 Symbolic Z-matrix:
 Charge =  0 Multiplicity = 1

                         Standard orientation:
 ---------------------------------------------------------------------
 Center     Atomic      Atomic             Coordinates (Angstroms)
 Number     Number       Type             X           Y           Z
 ---------------------------------------------------------------------
      1          8           0        0.052950   -0.832075    0.000000
      2          1           0       -0.749602   -1.399011    0.000000
      3          1           0        0.849518   -1.407388    0.000000
      4          8           0        0.052950    0.902035    0.000000
      5          1           0       -0.163706    1.860454    0.000000
      6          1           0       -0.783404    0.386265    0.000000
 ---------------------------------------------------------------------

 SCF Done:  E(RHF) =  -151.969931114     A.U. after   11 cycles
 E2 =    -0.5456934456D+00 EUMP2 =    -0.15251562456000D+03
 CCSD(T)
 CCSD(T)= -0.15254113100D+03

 The electronic state is 1-A'.
 Alpha  occ. eigenvalues --  -20.54276 -20.50246  -1.38200  -1.26740  -0.75428
 Alpha  occ. eigenvalues --   -0.70780  -0.54551  -0.53442  -0.43682  -0.42738
 Alpha virt. eigenvalues --    0.13544   0.18978   0.19673   0.24832   0.51119
 Alpha virt. eigenvalues --    0.55647   0.60677   0.66440   0.73092   0.76660
 Alpha virt. eigenvalues --    0.79939   0.80904   0.84034   0.84493   0.88672

 Mulliken charges:
               1
     1  O   -0.340344
     2  H    0.163645
     3  H    0.208548
     4  O   -0.408618
     5  H    0.129236
     6  H    0.247533
 Sum of Mulliken charges =  -0.00000

 Dipole moment (field-independent basis, Debye):
    X=             -1.4124    Y=             -1.6034    Z=              0.0000  Tot=              2.1368
 Quadrupole moment (field-independent basis, Debye-Ang):
   XX=             -9.6862   YY=             -8.1034   ZZ=            -14.6112
   XY=             -1.1475   XZ=              0.0000   YZ=              0.0000

 Normal termination of Gaussian 16 at Fri Aug 26 13:16:36 2022.
