 Gaussian 16, Revision A.03,
 Gaussian 16:  ES64L-G16RevA.03 25-Dec-2016

 ------------------
 #p CCSD(T)/cc-pVTZ
 ------------------

 ------------
 H2O_H2O_1724
 ------------
 Symbolic Z-matrix:
 Charge =  0 Multiplicity = 1

                         Standard orientation:
 ---------------------------------------------------------------------
 Center     Atomic      Atomic             Coordinates (Angstroms)
 Number     Number       Type             X           Y           Z
 ---------------------------------------------------------------------
      1          8           0        0.057278   -1.645863    0.000000
      2          1           0       -0.743939   -2.214684    0.000000
      3          1           0        0.855197   -2.219301    0.000000
      4          8           0        0.057278    1.759759    0.000000
      5          1           0       -0.511543    2.560977    0.000000
      6          1           0       -0.516160    0.961840    0.000000
 ---------------------------------------------------------------------

 SCF Done:  E(RHF) =  -152.109949464     A.U. after   10 cycles
 E2 =    -0.5266804880D+00 EUMP2 =    -0.15263662995203D+03
 CCSD(T)
 CCSD(T)= -0.15266373155D+03

 The electronic state is 1-A'.
 Alpha  occ. eigenvalues --  -20.56531 -20.53684  -1.33798  -1.31003  -0.71196
 Alpha  occ. eigenvalues --   -0.68405  -0.57298  -0.54494  -0.50923  -0.48141
 Alpha virt. eigenvalues --    0.12868   0.16842   0.19595   0.25091   0.52572
 Alpha virt. eigenvalues --    0.55812   0.56559   0.57993   0.67659   0.74988
 Alpha virt. eigenvalues --    0.76753   0.76986   0.80171   0.81088   0.84085

 Mulliken charges:
               1
     1  O   -0.498583
     2  H    0.248511
     3  H    0.259932
     4  O   -0.517969
     5  H    0.242437
     6  H    0.265672
 Sum of Mulliken charges =  -0.00000

 Dipole moment (field-independent basis, Debye):
    X=             -1.9081    Y=             -2.1819    Z=              0.0000  Tot=              2.8986
 Quadrupole moment (field-independent basis, Debye-Ang):
   XX=             -9.8600   YY=             -3.3475   ZZ=            -14.7237
   XY=             -3.6591   XZ=              0.0000   YZ=              0.0000

 Normal termination of Gaussian 16 at Sat Aug 27 06:25:37 2022.
