 Gaussian 16, Revision A.03,
 Gaussian 16:  ES64L-G16RevA.03 25-Dec-2016

 ------------------
 #p CCSD(T)/cc-pVTZ
 ------------------

 ------------
 H2O_H2O_2892
 ------------
 Symbolic Z-matrix:
 Charge =  0 Multiplicity = 1

                         Standard orientation:
 ---------------------------------------------------------------------
 Center     Atomic      Atomic             Coordinates (Angstroms)
 Number     Number       Type             X           Y           Z
 ---------------------------------------------------------------------
      1          8           0        0.051283   -2.298135    0.000000
      2          1           0       -0.749367   -2.867753    0.000000
      3          1           0        0.849772   -2.870779    0.000000
      4          8           0        0.051283    2.361646    0.000000
      5          1           0       -0.105472    3.331664    0.000000
      6          1           0       -0.815468    1.898777    0.000000
 ---------------------------------------------------------------------

 SCF Done:  E(RHF) =  -152.107156907     A.U. after   10 cycles
 E2 =    -0.5259972225D+00 EUMP2 =    -0.15263315412962D+03
 CCSD(T)
 CCSD(T)= -0.15266037032D+03

 The electronic state is 1-A'.
 Alpha  occ. eigenvalues --  -20.55462 -20.54746  -1.32755  -1.32037  -0.70163
 Alpha  occ. eigenvalues --   -0.69426  -0.56185  -0.55468  -0.49864  -0.49151
 Alpha virt. eigenvalues --    0.13694   0.15270   0.20170   0.21221   0.54205
 Alpha virt. eigenvalues --    0.54949   0.57312   0.57929   0.66602   0.71119
 Alpha virt. eigenvalues --    0.79016   0.79717   0.80173   0.81179   0.82827

 Mulliken charges:
               1
     1  O   -0.506582
     2  H    0.250748
     3  H    0.256160
     4  O   -0.506487
     5  H    0.248529
     6  H    0.257632
 Sum of Mulliken charges =  -0.00000

 Dipole moment (field-independent basis, Debye):
    X=             -1.7485    Y=             -1.1325    Z=              0.0000  Tot=              2.0832
 Quadrupole moment (field-independent basis, Debye-Ang):
   XX=             -9.4584   YY=              2.9694   ZZ=            -14.7124
   XY=             -3.5422   XZ=              0.0000   YZ=              0.0000

 Normal termination of Gaussian 16 at Fri Aug 26 17:12:38 2022.
