 Gaussian 16, Revision A.03,
 Gaussian 16:  ES64L-G16RevA.03 25-Dec-2016

 ------------------
 #p CCSD(T)/cc-pVTZ
 ------------------

 ------------
 H2O_H2O_2333
 ------------
 Symbolic Z-matrix:
 Charge =  0 Multiplicity = 1

                         Standard orientation:
 ---------------------------------------------------------------------
 Center     Atomic      Atomic             Coordinates (Angstroms)
 Number     Number       Type             X           Y           Z
 ---------------------------------------------------------------------
      1          8           0        0.028566   -2.031844    0.000000
      2          1           0       -0.771693   -2.602012    0.000000
      3          1           0        0.827448   -2.603940    0.000000
      4          8           0        0.028566    2.047079    0.000000
      5          1           0        0.436528    2.940988    0.000000
      6          1           0       -0.949334    2.143087    0.000000
 ---------------------------------------------------------------------

 SCF Done:  E(RHF) =  -152.105636675     A.U. after   10 cycles
 E2 =    -0.5262319429D+00 EUMP2 =    -0.15263186861828D+03
 CCSD(T)
 CCSD(T)= -0.15265910794D+03

 The electronic state is 1-A'.
 Alpha  occ. eigenvalues --  -20.54796 -20.54575  -1.32081  -1.31857  -0.69496
 Alpha  occ. eigenvalues --   -0.69263  -0.55491  -0.55142  -0.49182  -0.48957
 Alpha virt. eigenvalues --    0.14050   0.15586   0.20508   0.21182   0.54097
 Alpha virt. eigenvalues --    0.55659   0.57810   0.58102   0.63630   0.74270
 Alpha virt. eigenvalues --    0.79463   0.80128   0.80624   0.81154   0.82437

 Mulliken charges:
               1
     1  O   -0.497162
     2  H    0.246516
     3  H    0.250828
     4  O   -0.496880
     5  H    0.245579
     6  H    0.251118
 Sum of Mulliken charges =  -0.00000

 Dipole moment (field-independent basis, Debye):
    X=             -0.9665    Y=             -0.2752    Z=              0.0000  Tot=              1.0050
 Quadrupole moment (field-independent basis, Debye-Ang):
   XX=             -8.3384   YY=              3.5964   ZZ=            -14.7102
   XY=             -1.2614   XZ=              0.0000   YZ=              0.0000

 Normal termination of Gaussian 16 at Sat Aug 27 09:55:43 2022.
