 Gaussian 16, Revision A.03,
 Gaussian 16:  ES64L-G16RevA.03 25-Dec-2016

 ------------------
 #p CCSD(T)/cc-pVTZ
 ------------------

 -----------
 H2O_H2O_381
 -----------
 Symbolic Z-matrix:
 Charge =  0 Multiplicity = 1

                         Standard orientation:
 ---------------------------------------------------------------------
 Center     Atomic      Atomic             Coordinates (Angstroms)
 Number     Number       Type             X           Y           Z
 ---------------------------------------------------------------------
      1          8           0        0.021864   -0.998359    0.000000
      2          1           0       -0.778777   -1.567989    0.000000
      3          1           0        0.820362   -1.570990    0.000000
      4          8           0        0.021864    1.006972    0.000000
      5          1           0        0.543573    1.839633    0.000000
      6          1           0       -0.934988    1.230442    0.000000
 ---------------------------------------------------------------------

 SCF Done:  E(RHF) =  -152.052392903     A.U. after   11 cycles
 E2 =    -0.5351774427D+00 EUMP2 =    -0.15258757034579D+03
 CCSD(T)
 CCSD(T)= -0.15261437947D+03

 The electronic state is 1-A'.
 Alpha  occ. eigenvalues --  -20.52119 -20.51849  -1.32133  -1.28564  -0.68834
 Alpha  occ. eigenvalues --   -0.66773  -0.60513  -0.49320  -0.45040  -0.44104
 Alpha virt. eigenvalues --    0.14567   0.18287   0.20389   0.23018   0.51415
 Alpha virt. eigenvalues --    0.58630   0.58905   0.65364   0.69884   0.77699
 Alpha virt. eigenvalues --    0.78685   0.82709   0.84121   0.86454   0.87652

 Mulliken charges:
               1
     1  O   -0.435677
     2  H    0.210050
     3  H    0.223756
     4  O   -0.415725
     5  H    0.188066
     6  H    0.229530
 Sum of Mulliken charges =  -0.00000

 Dipole moment (field-independent basis, Debye):
    X=             -0.6375    Y=             -0.1816    Z=              0.0000  Tot=              0.6628
 Quadrupole moment (field-independent basis, Debye-Ang):
   XX=             -8.4145   YY=             -5.7197   ZZ=            -14.7438
   XY=             -0.2388   XZ=              0.0000   YZ=              0.0000

 Normal termination of Gaussian 16 at Fri Aug 26 15:52:11 2022.
