 Gaussian 16, Revision A.03,
 Gaussian 16:  ES64L-G16RevA.03 25-Dec-2016

 ------------------
 #p CCSD(T)/cc-pVTZ
 ------------------

 ------------
 H2O_H2O_1763
 ------------
 Symbolic Z-matrix:
 Charge =  0 Multiplicity = 1

                         Standard orientation:
 ---------------------------------------------------------------------
 Center     Atomic      Atomic             Coordinates (Angstroms)
 Number     Number       Type             X           Y           Z
 ---------------------------------------------------------------------
      1          8           0        0.042981   -1.713278    0.000000
      2          1           0       -0.757806   -2.282703    0.000000
      3          1           0        0.841332   -2.286114    0.000000
      4          8           0        0.042981    1.752006    0.000000
      5          1           0        0.142861    2.729518    0.000000
      6          1           0       -0.914090    1.529471    0.000000
 ---------------------------------------------------------------------

 SCF Done:  E(RHF) =  -152.105637985     A.U. after   10 cycles
 E2 =    -0.5266497468D+00 EUMP2 =    -0.15263228773189D+03
 CCSD(T)
 CCSD(T)= -0.15265949834D+03

 The electronic state is 1-A'.
 Alpha  occ. eigenvalues --  -20.54965 -20.54155  -1.32242  -1.31418  -0.69664
 Alpha  occ. eigenvalues --   -0.68807  -0.55709  -0.54614  -0.49351  -0.48522
 Alpha virt. eigenvalues --    0.13763   0.16294   0.20267   0.22075   0.53383
 Alpha virt. eigenvalues --    0.55379   0.57707   0.58579   0.63954   0.76859
 Alpha virt. eigenvalues --    0.78532   0.78536   0.79828   0.81165   0.85292

 Mulliken charges:
               1
     1  O   -0.490410
     2  H    0.241334
     3  H    0.250874
     4  O   -0.492335
     5  H    0.238490
     6  H    0.252046
 Sum of Mulliken charges =  -0.00000

 Dipole moment (field-independent basis, Debye):
    X=             -1.4314    Y=             -0.7217    Z=              0.0000  Tot=              1.6030
 Quadrupole moment (field-independent basis, Debye-Ang):
   XX=             -8.9928   YY=              0.4260   ZZ=            -14.7127
   XY=             -1.7739   XZ=              0.0000   YZ=              0.0000

 Normal termination of Gaussian 16 at Sat Aug 27 06:39:11 2022.
