 Gaussian 16, Revision A.03,
 Gaussian 16:  ES64L-G16RevA.03 25-Dec-2016

 ------------------
 #p CCSD(T)/cc-pVTZ
 ------------------

 -----------
 H2O_H2O_735
 -----------
 Symbolic Z-matrix:
 Charge =  0 Multiplicity = 1

                         Standard orientation:
 ---------------------------------------------------------------------
 Center     Atomic      Atomic             Coordinates (Angstroms)
 Number     Number       Type             X           Y           Z
 ---------------------------------------------------------------------
      1          8           0        0.034798   -1.176454    0.000000
      2          1           0       -0.766209   -1.745570    0.000000
      3          1           0        0.832928   -1.749598    0.000000
      4          8           0        0.034798    1.199883    0.000000
      5          1           0        0.323825    2.139015    0.000000
      6          1           0       -0.947310    1.168718    0.000000
 ---------------------------------------------------------------------

 SCF Done:  E(RHF) =  -152.090342782     A.U. after   11 cycles
 E2 =    -0.5300569547D+00 EUMP2 =    -0.15262039973649D+03
 CCSD(T)
 CCSD(T)= -0.15264761135D+03

 The electronic state is 1-A'.
 Alpha  occ. eigenvalues --  -20.53581 -20.52819  -1.31583  -1.29949  -0.68866
 Alpha  occ. eigenvalues --   -0.67695  -0.57230  -0.49998  -0.48842  -0.46733
 Alpha virt. eigenvalues --    0.14274   0.17529   0.20360   0.22983   0.52598
 Alpha virt. eigenvalues --    0.58274   0.58358   0.62053   0.70627   0.76156
 Alpha virt. eigenvalues --    0.77431   0.80209   0.83696   0.86010   0.87305

 Mulliken charges:
               1
     1  O   -0.464321
     2  H    0.223607
     3  H    0.239933
     4  O   -0.445692
     5  H    0.207376
     6  H    0.239097
 Sum of Mulliken charges =  -0.00000

 Dipole moment (field-independent basis, Debye):
    X=             -1.0717    Y=             -0.4597    Z=              0.0000  Tot=              1.1661
 Quadrupole moment (field-independent basis, Debye-Ang):
   XX=             -8.7217   YY=             -3.6547   ZZ=            -14.7277
   XY=             -0.6670   XZ=              0.0000   YZ=              0.0000

 Normal termination of Gaussian 16 at Fri Aug 26 19:32:33 2022.
