 Gaussian 16, Revision A.03,
 Gaussian 16:  ES64L-G16RevA.03 25-Dec-2016

 ------------------
 #p CCSD(T)/cc-pVTZ
 ------------------

 ------------
 H2O_H2O_2268
 ------------
 Symbolic Z-matrix:
 Charge =  0 Multiplicity = 1

                         Standard orientation:
 ---------------------------------------------------------------------
 Center     Atomic      Atomic             Coordinates (Angstroms)
 Number     Number       Type             X           Y           Z
 ---------------------------------------------------------------------
      1          8           0        0.052846   -1.962064    0.000000
      2          1           0       -0.748022   -2.531376    0.000000
      3          1           0        0.851116   -2.535013    0.000000
      4          8           0        0.052846    2.032337    0.000000
      5          1           0       -0.166650    2.990110    0.000000
      6          1           0       -0.781975    1.514091    0.000000
 ---------------------------------------------------------------------

 SCF Done:  E(RHF) =  -152.107354540     A.U. after   10 cycles
 E2 =    -0.5261991280D+00 EUMP2 =    -0.15263355366762D+03
 CCSD(T)
 CCSD(T)= -0.15266074482D+03

 The electronic state is 1-A'.
 Alpha  occ. eigenvalues --  -20.55554 -20.54411  -1.32834  -1.31696  -0.70245
 Alpha  occ. eigenvalues --   -0.69072  -0.56257  -0.55122  -0.49946  -0.48815
 Alpha virt. eigenvalues --    0.13347   0.15907   0.20061   0.22078   0.53997
 Alpha virt. eigenvalues --    0.54532   0.57259   0.58400   0.65326   0.74658
 Alpha virt. eigenvalues --    0.78807   0.79385   0.80159   0.81535   0.83717

 Mulliken charges:
               1
     1  O   -0.502783
     2  H    0.248238
     3  H    0.256322
     4  O   -0.506075
     5  H    0.245290
     6  H    0.259007
 Sum of Mulliken charges =  -0.00000

 Dipole moment (field-independent basis, Debye):
    X=             -1.7850    Y=             -1.2833    Z=              0.0000  Tot=              2.1985
 Quadrupole moment (field-independent basis, Debye-Ang):
   XX=             -9.5621   YY=              0.6450   ZZ=            -14.7143
   XY=             -3.1714   XZ=              0.0000   YZ=              0.0000

 Normal termination of Gaussian 16 at Sat Aug 27 09:33:27 2022.
