 Gaussian 16, Revision A.03,
 Gaussian 16:  ES64L-G16RevA.03 25-Dec-2016

 ------------------
 #p CCSD(T)/cc-pVTZ
 ------------------

 ------------
 H2O_H2O_3448
 ------------
 Symbolic Z-matrix:
 Charge =  0 Multiplicity = 1

                         Standard orientation:
 ---------------------------------------------------------------------
 Center     Atomic      Atomic             Coordinates (Angstroms)
 Number     Number       Type             X           Y           Z
 ---------------------------------------------------------------------
      1          8           0        0.057091   -2.567277    0.000000
      2          1           0       -0.743548   -3.136911    0.000000
      3          1           0        0.855591   -3.139905    0.000000
      4          8           0        0.057091    2.673819    0.000000
      5          1           0       -0.458960    3.510000    0.000000
      6          1           0       -0.566536    1.914479    0.000000
 ---------------------------------------------------------------------

 SCF Done:  E(RHF) =  -152.107866815     A.U. after   10 cycles
 E2 =    -0.5258865583D+00 EUMP2 =    -0.15263375337343D+03
 CCSD(T)
 CCSD(T)= -0.15266095877D+03

 The electronic state is 1-A'.
 Alpha  occ. eigenvalues --  -20.55820 -20.54889  -1.33117  -1.32189  -0.70523
 Alpha  occ. eigenvalues --   -0.69580  -0.56584  -0.55646  -0.50232  -0.49307
 Alpha virt. eigenvalues --    0.13590   0.15003   0.19973   0.21090   0.54007
 Alpha virt. eigenvalues --    0.54893   0.56996   0.57827   0.67019   0.69236
 Alpha virt. eigenvalues --    0.78654   0.79554   0.79969   0.80365   0.82748

 Mulliken charges:
               1
     1  O   -0.511205
     2  H    0.253659
     3  H    0.257734
     4  O   -0.510687
     5  H    0.250890
     6  H    0.259608
 Sum of Mulliken charges =   0.00000

 Dipole moment (field-independent basis, Debye):
    X=             -1.9553    Y=             -1.8830    Z=              0.0000  Tot=              2.7146
 Quadrupole moment (field-independent basis, Debye-Ang):
   XX=             -9.8536   YY=              1.0569   ZZ=            -14.7136
   XY=             -5.2754   XZ=              0.0000   YZ=              0.0000

 Normal termination of Gaussian 16 at Fri Aug 26 22:25:23 2022.
