 Gaussian 16, Revision A.03,
 Gaussian 16:  ES64L-G16RevA.03 25-Dec-2016

 ------------------
 #p CCSD(T)/cc-pVTZ
 ------------------

 -----------
 H2O_H2O_985
 -----------
 Symbolic Z-matrix:
 Charge =  0 Multiplicity = 1

                         Standard orientation:
 ---------------------------------------------------------------------
 Center     Atomic      Atomic             Coordinates (Angstroms)
 Number     Number       Type             X           Y           Z
 ---------------------------------------------------------------------
      1          8           0        0.034795   -1.309403    0.000000
      2          1           0       -0.766068   -1.878723    0.000000
      3          1           0        0.833070   -1.882345    0.000000
      4          8           0        0.034795    1.332850    0.000000
      5          1           0        0.323583    2.272056    0.000000
      6          1           0       -0.947305    1.301436    0.000000
 ---------------------------------------------------------------------

 SCF Done:  E(RHF) =  -152.098551285     A.U. after   11 cycles
 E2 =    -0.5284941016D+00 EUMP2 =    -0.15262704538634D+03
 CCSD(T)
 CCSD(T)= -0.15265430619D+03

 The electronic state is 1-A'.
 Alpha  occ. eigenvalues --  -20.54002 -20.53303  -1.31539  -1.30523  -0.68924
 Alpha  occ. eigenvalues --   -0.68045  -0.56337  -0.51889  -0.48754  -0.47440
 Alpha virt. eigenvalues --    0.14193   0.17170   0.20374   0.22684   0.52672
 Alpha virt. eigenvalues --    0.58251   0.58488   0.60520   0.69926   0.76436
 Alpha virt. eigenvalues --    0.76833   0.77864   0.83021   0.83422   0.85895

 Mulliken charges:
               1
     1  O   -0.471361
     2  H    0.228902
     3  H    0.242667
     4  O   -0.460195
     5  H    0.219770
     6  H    0.240218
 Sum of Mulliken charges =  -0.00000

 Dipole moment (field-independent basis, Debye):
    X=             -1.1042    Y=             -0.4527    Z=              0.0000  Tot=              1.1934
 Quadrupole moment (field-independent basis, Debye-Ang):
   XX=             -8.6774   YY=             -2.4125   ZZ=            -14.7199
   XY=             -0.8075   XZ=              0.0000   YZ=              0.0000

 Normal termination of Gaussian 16 at Sat Aug 27 01:10:57 2022.
