 Gaussian 16, Revision A.03,
 Gaussian 16:  ES64L-G16RevA.03 25-Dec-2016

 ------------------
 #p CCSD(T)/cc-pVTZ
 ------------------

 ------------
 H2O_H2O_3066
 ------------
 Symbolic Z-matrix:
 Charge =  0 Multiplicity = 1

                         Standard orientation:
 ---------------------------------------------------------------------
 Center     Atomic      Atomic             Coordinates (Angstroms)
 Number     Number       Type             X           Y           Z
 ---------------------------------------------------------------------
      1          8           0        0.049512   -2.394776    0.000000
      2          1           0       -0.751062   -2.964502    0.000000
      3          1           0        0.848078   -2.967312    0.000000
      4          8           0        0.049512    2.451715    0.000000
      5          1           0       -0.043599    3.429895    0.000000
      6          1           0       -0.845602    2.046404    0.000000
 ---------------------------------------------------------------------

 SCF Done:  E(RHF) =  -152.107045906     A.U. after   10 cycles
 E2 =    -0.5259759191D+00 EUMP2 =    -0.15263302182482D+03
 CCSD(T)
 CCSD(T)= -0.15266024389D+03

 The electronic state is 1-A'.
 Alpha  occ. eigenvalues --  -20.55405 -20.54821  -1.32700  -1.32114  -0.70108
 Alpha  occ. eigenvalues --   -0.69506  -0.56128  -0.55542  -0.49809  -0.49226
 Alpha virt. eigenvalues --    0.13868   0.15102   0.20226   0.21048   0.54328
 Alpha virt. eigenvalues --    0.54988   0.57349   0.57869   0.66963   0.70301
 Alpha virt. eigenvalues --    0.79072   0.79642   0.80353   0.81056   0.82828

 Mulliken charges:
               1
     1  O   -0.506455
     2  H    0.250940
     3  H    0.255665
     4  O   -0.506071
     5  H    0.249071
     6  H    0.256849
 Sum of Mulliken charges =  -0.00000

 Dipole moment (field-independent basis, Debye):
    X=             -1.6908    Y=             -1.0104    Z=              0.0000  Tot=              1.9697
 Quadrupole moment (field-independent basis, Debye-Ang):
   XX=             -9.3465   YY=              3.9654   ZZ=            -14.7119
   XY=             -3.4736   XZ=              0.0000   YZ=              0.0000

 Normal termination of Gaussian 16 at Fri Aug 26 19:05:12 2022.
