 Gaussian 16, Revision A.03,
 Gaussian 16:  ES64L-G16RevA.03 25-Dec-2016

 ------------------
 #p CCSD(T)/cc-pVTZ
 ------------------

 ------------
 H2O_H2O_3198
 ------------
 Symbolic Z-matrix:
 Charge =  0 Multiplicity = 1

                         Standard orientation:
 ---------------------------------------------------------------------
 Center     Atomic      Atomic             Coordinates (Angstroms)
 Number     Number       Type             X           Y           Z
 ---------------------------------------------------------------------
      1          8           0        0.057096   -2.434324    0.000000
      2          1           0       -0.743600   -3.003878    0.000000
      3          1           0        0.855539   -3.007032    0.000000
      4          8           0        0.057096    2.540855    0.000000
      5          1           0       -0.458871    3.377087    0.000000
      6          1           0       -0.566607    1.781577    0.000000
 ---------------------------------------------------------------------

 SCF Done:  E(RHF) =  -152.107974889     A.U. after   10 cycles
 E2 =    -0.5259100338D+00 EUMP2 =    -0.15263388492325D+03
 CCSD(T)
 CCSD(T)= -0.15266108411D+03

 The electronic state is 1-A'.
 Alpha  occ. eigenvalues --  -20.55854 -20.54801  -1.33149  -1.32101  -0.70554
 Alpha  occ. eigenvalues --   -0.69489  -0.56618  -0.55559  -0.50264  -0.49220
 Alpha virt. eigenvalues --    0.13421   0.15183   0.19946   0.21286   0.53963
 Alpha virt. eigenvalues --    0.54886   0.56981   0.57888   0.66806   0.69774
 Alpha virt. eigenvalues --    0.78626   0.79637   0.79768   0.80295   0.82802

 Mulliken charges:
               1
     1  O   -0.511140
     2  H    0.253430
     3  H    0.258134
     4  O   -0.510998
     5  H    0.250306
     6  H    0.260269
 Sum of Mulliken charges =  -0.00000

 Dipole moment (field-independent basis, Debye):
    X=             -1.9524    Y=             -1.8926    Z=              0.0000  Tot=              2.7191
 Quadrupole moment (field-independent basis, Debye-Ang):
   XX=             -9.8531   YY=              0.4918   ZZ=            -14.7141
   XY=             -5.0180   XZ=              0.0000   YZ=              0.0000

 Normal termination of Gaussian 16 at Fri Aug 26 20:18:00 2022.
