 Gaussian 16, Revision A.03,
 Gaussian 16:  ES64L-G16RevA.03 25-Dec-2016

 ------------------
 #p CCSD(T)/cc-pVTZ
 ------------------

 ------------
 H2O_H2O_1383
 ------------
 Symbolic Z-matrix:
 Charge =  0 Multiplicity = 1

                         Standard orientation:
 ---------------------------------------------------------------------
 Center     Atomic      Atomic             Coordinates (Angstroms)
 Number     Number       Type             X           Y           Z
 ---------------------------------------------------------------------
      1          8           0        0.028569   -1.526611    0.000000
      2          1           0       -0.771916   -2.096461    0.000000
      3          1           0        0.827224   -2.099024    0.000000
      4          8           0        0.028569    1.541823    0.000000
      5          1           0        0.436885    2.435570    0.000000
      6          1           0       -0.949293    1.638220    0.000000
 ---------------------------------------------------------------------

 SCF Done:  E(RHF) =  -152.102775578     A.U. after   11 cycles
 E2 =    -0.5272560937D+00 EUMP2 =    -0.15263003167215D+03
 CCSD(T)
 CCSD(T)= -0.15265729566D+03

 The electronic state is 1-A'.
 Alpha  occ. eigenvalues --  -20.54240 -20.53873  -1.31564  -1.31128  -0.68988
 Alpha  occ. eigenvalues --   -0.68556  -0.55628  -0.53468  -0.48718  -0.48151
 Alpha virt. eigenvalues --    0.14174   0.16639   0.20459   0.22025   0.52572
 Alpha virt. eigenvalues --    0.58090   0.58188   0.58923   0.65606   0.76762
 Alpha virt. eigenvalues --    0.77782   0.78726   0.79085   0.82435   0.85831

 Mulliken charges:
               1
     1  O   -0.478042
     2  H    0.234920
     3  H    0.243720
     4  O   -0.475197
     5  H    0.232261
     6  H    0.242337
 Sum of Mulliken charges =  -0.00000

 Dipole moment (field-independent basis, Debye):
    X=             -0.9363    Y=             -0.2873    Z=              0.0000  Tot=              0.9794
 Quadrupole moment (field-independent basis, Debye-Ang):
   XX=             -8.3896   YY=             -0.4243   ZZ=            -14.7116
   XY=             -0.7846   XZ=              0.0000   YZ=              0.0000

 Normal termination of Gaussian 16 at Sat Aug 27 04:24:00 2022.
