 Gaussian 16, Revision A.03,
 Gaussian 16:  ES64L-G16RevA.03 25-Dec-2016

 ------------------
 #p CCSD(T)/cc-pVTZ
 ------------------

 -----------
 H2O_H2O_724
 -----------
 Symbolic Z-matrix:
 Charge =  0 Multiplicity = 1

                         Standard orientation:
 ---------------------------------------------------------------------
 Center     Atomic      Atomic             Coordinates (Angstroms)
 Number     Number       Type             X           Y           Z
 ---------------------------------------------------------------------
      1          8           0        0.057352   -1.114105    0.000000
      2          1           0       -0.744609   -1.681875    0.000000
      3          1           0        0.854518   -1.688589    0.000000
      4          8           0        0.057352    1.227851    0.000000
      5          1           0       -0.510417    2.029813    0.000000
      6          1           0       -0.517132    0.430684    0.000000
 ---------------------------------------------------------------------

 SCF Done:  E(RHF) =  -152.092811006     A.U. after   11 cycles
 E2 =    -0.5322031583D+00 EUMP2 =    -0.15262501416457D+03
 CCSD(T)
 CCSD(T)= -0.15265165285D+03

 The electronic state is 1-A'.
 Alpha  occ. eigenvalues --  -20.57383 -20.50707  -1.35755  -1.28474  -0.73011
 Alpha  occ. eigenvalues --   -0.69318  -0.55579  -0.52545  -0.52051  -0.45494
 Alpha virt. eigenvalues --    0.12730   0.18661   0.19118   0.27747   0.49558
 Alpha virt. eigenvalues --    0.55270   0.61412   0.64052   0.71394   0.73406
 Alpha virt. eigenvalues --    0.75668   0.82018   0.83066   0.83454   0.86676

 Mulliken charges:
               1
     1  O   -0.435568
     2  H    0.228733
     3  H    0.251832
     4  O   -0.529724
     5  H    0.214409
     6  H    0.270318
 Sum of Mulliken charges =  -0.00000

 Dipole moment (field-independent basis, Debye):
    X=             -1.7632    Y=             -2.5784    Z=              0.0000  Tot=              3.1236
 Quadrupole moment (field-independent basis, Debye-Ang):
   XX=             -9.8405   YY=             -6.0983   ZZ=            -14.6934
   XY=             -2.6575   XZ=              0.0000   YZ=              0.0000

 Normal termination of Gaussian 16 at Fri Aug 26 19:26:52 2022.
