 Gaussian 16, Revision A.03,
 Gaussian 16:  ES64L-G16RevA.03 25-Dec-2016

 ------------------
 #p CCSD(T)/cc-pVTZ
 ------------------

 ------------
 H2O_H2O_1456
 ------------
 Symbolic Z-matrix:
 Charge =  0 Multiplicity = 1

                         Standard orientation:
 ---------------------------------------------------------------------
 Center     Atomic      Atomic             Coordinates (Angstroms)
 Number     Number       Type             X           Y           Z
 ---------------------------------------------------------------------
      1          8           0        0.021861   -1.570067    0.000000
      2          1           0       -0.778392   -2.140243    0.000000
      3          1           0        0.820749   -2.142154    0.000000
      4          8           0        0.021861    1.578710    0.000000
      5          1           0        0.543002    2.411728    0.000000
      6          1           0       -0.935143    1.801528    0.000000
 ---------------------------------------------------------------------

 SCF Done:  E(RHF) =  -152.102847182     A.U. after   10 cycles
 E2 =    -0.5271176635D+00 EUMP2 =    -0.15262996484591D+03
 CCSD(T)
 CCSD(T)= -0.15265723483D+03

 The electronic state is 1-A'.
 Alpha  occ. eigenvalues --  -20.54165 -20.53966  -1.31484  -1.31222  -0.68907
 Alpha  occ. eigenvalues --   -0.68654  -0.55522  -0.53581  -0.48643  -0.48237
 Alpha virt. eigenvalues --    0.14238   0.16534   0.20516   0.21833   0.52424
 Alpha virt. eigenvalues --    0.58195   0.58222   0.58795   0.64507   0.76738
 Alpha virt. eigenvalues --    0.78093   0.78485   0.79311   0.82229   0.85902

 Mulliken charges:
               1
     1  O   -0.478130
     2  H    0.236012
     3  H    0.242455
     4  O   -0.476705
     5  H    0.234812
     6  H    0.241555
 Sum of Mulliken charges =  -0.00000

 Dipole moment (field-independent basis, Debye):
    X=             -0.7200    Y=             -0.1626    Z=              0.0000  Tot=              0.7381
 Quadrupole moment (field-independent basis, Debye-Ang):
   XX=             -8.1763   YY=              0.0579   ZZ=            -14.7102
   XY=             -0.5846   XZ=              0.0000   YZ=              0.0000

 Normal termination of Gaussian 16 at Sat Aug 27 04:52:00 2022.
