 Gaussian 16, Revision A.03,
 Gaussian 16:  ES64L-G16RevA.03 25-Dec-2016

 ------------------
 #p CCSD(T)/cc-pVTZ
 ------------------

 ------------
 H2O_H2O_3953
 ------------
 Symbolic Z-matrix:
 Charge =  0 Multiplicity = 1

                         Standard orientation:
 ---------------------------------------------------------------------
 Center     Atomic      Atomic             Coordinates (Angstroms)
 Number     Number       Type             X           Y           Z
 ---------------------------------------------------------------------
      1          8           0        0.011143   -2.903164    0.000000
      2          1           0       -0.788617   -3.474032    0.000000
      3          1           0        0.810525   -3.474560    0.000000
      4          8           0        0.011143    2.905352    0.000000
      5          1           0        0.684164    3.621277    0.000000
      6          1           0       -0.884354    3.309817    0.000000
 ---------------------------------------------------------------------

 SCF Done:  E(RHF) =  -152.106644432     A.U. after   10 cycles
 E2 =    -0.5259531790D+00 EUMP2 =    -0.15263259761068D+03
 CCSD(T)
 CCSD(T)= -0.15265983356D+03

 The electronic state is 1-A'.
 Alpha  occ. eigenvalues --  -20.55117 -20.55102  -1.32412  -1.32397  -0.69820
 Alpha  occ. eigenvalues --   -0.69805  -0.55824  -0.55809  -0.49518  -0.49503
 Alpha virt. eigenvalues --    0.14460   0.14548   0.20520   0.20559   0.54743
 Alpha virt. eigenvalues --    0.54774   0.57598   0.57621   0.68300   0.68568
 Alpha virt. eigenvalues --    0.79360   0.79375   0.80806   0.80825   0.82737

 Mulliken charges:
               1
     1  O   -0.504365
     2  H    0.251862
     3  H    0.252503
     4  O   -0.504345
     5  H    0.251733
     6  H    0.252612
 Sum of Mulliken charges =  -0.00000

 Dipole moment (field-independent basis, Debye):
    X=             -0.3822    Y=             -0.0383    Z=              0.0000  Tot=              0.3841
 Quadrupole moment (field-independent basis, Debye-Ang):
   XX=             -7.8842   YY=             11.0482   ZZ=            -14.7104
   XY=             -0.7712   XZ=              0.0000   YZ=              0.0000

 Normal termination of Gaussian 16 at Sat Aug 27 04:32:02 2022.
