 Gaussian 16, Revision A.03,
 Gaussian 16:  ES64L-G16RevA.03 25-Dec-2016

 ------------------
 #p CCSD(T)/cc-pVTZ
 ------------------

 ------------
 H2O_H2O_2474
 ------------
 Symbolic Z-matrix:
 Charge =  0 Multiplicity = 1

                         Standard orientation:
 ---------------------------------------------------------------------
 Center     Atomic      Atomic             Coordinates (Angstroms)
 Number     Number       Type             X           Y           Z
 ---------------------------------------------------------------------
      1          8           0        0.057247   -2.044708    0.000000
      2          1           0       -0.743658   -2.613968    0.000000
      3          1           0        0.855479   -2.617709    0.000000
      4          8           0        0.057247    2.158667    0.000000
      5          1           0       -0.512013    2.959572    0.000000
      6          1           0       -0.515754    1.360434    0.000000
 ---------------------------------------------------------------------

 SCF Done:  E(RHF) =  -152.108776555     A.U. after   10 cycles
 E2 =    -0.5260724234D+00 EUMP2 =    -0.15263484897802D+03
 CCSD(T)
 CCSD(T)= -0.15266200965D+03

 The electronic state is 1-A'.
 Alpha  occ. eigenvalues --  -20.56125 -20.54413  -1.33401  -1.31718  -0.70806
 Alpha  occ. eigenvalues --   -0.69091  -0.56889  -0.55188  -0.50523  -0.48845
 Alpha virt. eigenvalues --    0.12927   0.15894   0.19790   0.22606   0.53818
 Alpha virt. eigenvalues --    0.54998   0.56802   0.58512   0.66733   0.72139
 Alpha virt. eigenvalues --    0.78336   0.79341   0.80021   0.80677   0.82436

 Mulliken charges:
               1
     1  O   -0.508316
     2  H    0.252113
     3  H    0.259042
     4  O   -0.513964
     5  H    0.247996
     6  H    0.263130
 Sum of Mulliken charges =  -0.00000

 Dipole moment (field-independent basis, Debye):
    X=             -1.9424    Y=             -2.0770    Z=              0.0000  Tot=              2.8437
 Quadrupole moment (field-independent basis, Debye-Ang):
   XX=             -9.8611   YY=             -1.6973   ZZ=            -14.7173
   XY=             -4.4186   XZ=              0.0000   YZ=              0.0000

 Normal termination of Gaussian 16 at Sat Aug 27 10:45:26 2022.
