 Gaussian 16, Revision A.03,
 Gaussian 16:  ES64L-G16RevA.03 25-Dec-2016

 ------------------
 #p CCSD(T)/cc-pVTZ
 ------------------

 -----------
 H2O_H2O_211
 -----------
 Symbolic Z-matrix:
 Charge =  0 Multiplicity = 1

                         Standard orientation:
 ---------------------------------------------------------------------
 Center     Atomic      Atomic             Coordinates (Angstroms)
 Number     Number       Type             X           Y           Z
 ---------------------------------------------------------------------
      1          8           0        0.037708   -0.894713    0.000000
      2          1           0       -0.763895   -1.462989    0.000000
      3          1           0        0.835236   -1.468693    0.000000
      4          8           0        0.037708    0.922791    0.000000
      5          1           0        0.265694    1.878577    0.000000
      6          1           0       -0.940359    0.828485    0.000000
 ---------------------------------------------------------------------

 SCF Done:  E(RHF) =  -152.013226666     A.U. after   11 cycles
 E2 =    -0.5405243339D+00 EUMP2 =    -0.15255375099980D+03
 CCSD(T)
 CCSD(T)= -0.15257993240D+03

 The electronic state is 1-A'.
 Alpha  occ. eigenvalues --  -20.52429 -20.51490  -1.34389  -1.27689  -0.71006
 Alpha  occ. eigenvalues --   -0.68010  -0.60072  -0.51029  -0.44246  -0.41548
 Alpha virt. eigenvalues --    0.14263   0.18626   0.19983   0.23602   0.53495
 Alpha virt. eigenvalues --    0.56647   0.58588   0.64830   0.71921   0.77569
 Alpha virt. eigenvalues --    0.79939   0.82288   0.83253   0.85091   0.88608

 Mulliken charges:
               1
     1  O   -0.403837
     2  H    0.190688
     3  H    0.212298
     4  O   -0.377515
     5  H    0.147830
     6  H    0.230535
 Sum of Mulliken charges =   0.00000

 Dipole moment (field-independent basis, Debye):
    X=             -1.0511    Y=             -0.6156    Z=              0.0000  Tot=              1.2181
 Quadrupole moment (field-independent basis, Debye-Ang):
   XX=             -8.9815   YY=             -7.1164   ZZ=            -14.7081
   XY=             -0.5234   XZ=              0.0000   YZ=              0.0000

 Normal termination of Gaussian 16 at Fri Aug 26 14:06:38 2022.
