 Gaussian 16, Revision A.03,
 Gaussian 16:  ES64L-G16RevA.03 25-Dec-2016

 ------------------
 #p CCSD(T)/cc-pVTZ
 ------------------

 ------------
 H2O_H2O_2615
 ------------
 Symbolic Z-matrix:
 Charge =  0 Multiplicity = 1

                         Standard orientation:
 ---------------------------------------------------------------------
 Center     Atomic      Atomic             Coordinates (Angstroms)
 Number     Number       Type             X           Y           Z
 ---------------------------------------------------------------------
      1          8           0        0.047535   -2.158898    0.000000
      2          1           0       -0.753103   -2.728533    0.000000
      3          1           0        0.846036   -2.731526    0.000000
      4          8           0        0.047535    2.209486    0.000000
      5          1           0        0.018713    3.191665    0.000000
      6          1           0       -0.872210    1.863692    0.000000
 ---------------------------------------------------------------------

 SCF Done:  E(RHF) =  -152.106792066     A.U. after   10 cycles
 E2 =    -0.5260770548D+00 EUMP2 =    -0.15263286912127D+03
 CCSD(T)
 CCSD(T)= -0.15266008849D+03

 The electronic state is 1-A'.
 Alpha  occ. eigenvalues --  -20.55300 -20.54647  -1.32590  -1.31934  -0.70000
 Alpha  occ. eigenvalues --   -0.69324  -0.56000  -0.55345  -0.49697  -0.49046
 Alpha virt. eigenvalues --    0.13703   0.15466   0.20238   0.21334   0.54097
 Alpha virt. eigenvalues --    0.54999   0.57450   0.58028   0.65826   0.72800
 Alpha virt. eigenvalues --    0.79155   0.79847   0.80235   0.81772   0.83216

 Mulliken charges:
               1
     1  O   -0.503914
     2  H    0.249194
     3  H    0.255172
     4  O   -0.504030
     5  H    0.247143
     6  H    0.256436
 Sum of Mulliken charges =  -0.00000

 Dipole moment (field-independent basis, Debye):
    X=             -1.6153    Y=             -0.9080    Z=              0.0000  Tot=              1.8530
 Quadrupole moment (field-independent basis, Debye-Ang):
   XX=             -9.2289   YY=              2.8814   ZZ=            -14.7120
   XY=             -2.8571   XZ=              0.0000   YZ=              0.0000

 Normal termination of Gaussian 16 at Fri Aug 26 14:22:04 2022.
