 Gaussian 16, Revision A.03,
 Gaussian 16:  ES64L-G16RevA.03 25-Dec-2016

 ------------------
 #p CCSD(T)/cc-pVTZ
 ------------------

 -----------
 H2O_H2O_419
 -----------
 Symbolic Z-matrix:
 Charge =  0 Multiplicity = 1

                         Standard orientation:
 ---------------------------------------------------------------------
 Center     Atomic      Atomic             Coordinates (Angstroms)
 Number     Number       Type             X           Y           Z
 ---------------------------------------------------------------------
      1          8           0        0.054260   -0.974502    0.000000
      2          1           0       -0.747928   -1.541954    0.000000
      3          1           0        0.851198   -1.549303    0.000000
      4          8           0        0.054260    1.051514    0.000000
      5          1           0       -0.225223    1.993530    0.000000
      6          1           0       -0.746204    0.481633    0.000000
 ---------------------------------------------------------------------

 SCF Done:  E(RHF) =  -152.057943570     A.U. after   11 cycles
 E2 =    -0.5361454241D+00 EUMP2 =    -0.15259408899410D+03
 CCSD(T)
 CCSD(T)= -0.15262067283D+03

 The electronic state is 1-A'.
 Alpha  occ. eigenvalues --  -20.55090 -20.50979  -1.34956  -1.28233  -0.72452
 Alpha  occ. eigenvalues --   -0.69319  -0.54508  -0.51508  -0.49493  -0.45147
 Alpha virt. eigenvalues --    0.13472   0.18675   0.19553   0.25203   0.51149
 Alpha virt. eigenvalues --    0.56120   0.60974   0.64176   0.72277   0.75210
 Alpha virt. eigenvalues --    0.79546   0.81849   0.83951   0.84771   0.87910

 Mulliken charges:
               1
     1  O   -0.407307
     2  H    0.201211
     3  H    0.231961
     4  O   -0.456489
     5  H    0.179535
     6  H    0.251090
 Sum of Mulliken charges =  -0.00000

 Dipole moment (field-independent basis, Debye):
    X=             -1.5730    Y=             -1.6748    Z=              0.0000  Tot=              2.2977
 Quadrupole moment (field-independent basis, Debye-Ang):
   XX=             -9.7128   YY=             -6.2716   ZZ=            -14.6798
   XY=             -1.5970   XZ=              0.0000   YZ=              0.0000

 Normal termination of Gaussian 16 at Fri Aug 26 16:17:27 2022.
