 Gaussian 16, Revision A.03,
 Gaussian 16:  ES64L-G16RevA.03 25-Dec-2016

 ------------------
 #p CCSD(T)/cc-pVTZ
 ------------------

 ------------
 H2O_H2O_1676
 ------------
 Symbolic Z-matrix:
 Charge =  0 Multiplicity = 1

                         Standard orientation:
 ---------------------------------------------------------------------
 Center     Atomic      Atomic             Coordinates (Angstroms)
 Number     Number       Type             X           Y           Z
 ---------------------------------------------------------------------
      1          8           0        0.003735   -1.694293    0.000000
      2          1           0       -0.795944   -2.265273    0.000000
      3          1           0        0.803198   -2.265577    0.000000
      4          8           0        0.003735    1.694536    0.000000
      5          1           0        0.764359    2.316595    0.000000
      6          1           0       -0.831379    2.212309    0.000000
 ---------------------------------------------------------------------

 SCF Done:  E(RHF) =  -152.103553620     A.U. after   10 cycles
 E2 =    -0.5267907336D+00 EUMP2 =    -0.15263034435333D+03
 CCSD(T)
 CCSD(T)= -0.15265760929D+03

 The electronic state is 1-A'.
 Alpha  occ. eigenvalues --  -20.54195 -20.54190  -1.31513  -1.31434  -0.68935
 Alpha  occ. eigenvalues --   -0.68868  -0.55345  -0.54049  -0.48664  -0.48461
 Alpha virt. eigenvalues --    0.14281   0.16237   0.20599   0.21514   0.52984
 Alpha virt. eigenvalues --    0.58061   0.58159   0.58480   0.61582   0.75973
 Alpha virt. eigenvalues --    0.78779   0.79034   0.79995   0.81571   0.84637

 Mulliken charges:
               1
     1  O   -0.482049
     2  H    0.240580
     3  H    0.241478
     4  O   -0.482040
     5  H    0.240546
     6  H    0.241484
 Sum of Mulliken charges =  -0.00000

 Dipole moment (field-independent basis, Debye):
    X=             -0.1243    Y=             -0.0045    Z=              0.0000  Tot=              0.1244
 Quadrupole moment (field-independent basis, Debye-Ang):
   XX=             -7.8740   YY=              1.2773   ZZ=            -14.7087
   XY=             -0.1048   XZ=              0.0000   YZ=              0.0000

 Normal termination of Gaussian 16 at Sat Aug 27 06:09:50 2022.
