 Gaussian 16, Revision A.03,
 Gaussian 16:  ES64L-G16RevA.03 25-Dec-2016

 ------------------
 #p CCSD(T)/cc-pVTZ
 ------------------

 -----------
 H2O_H2O_389
 -----------
 Symbolic Z-matrix:
 Charge =  0 Multiplicity = 1

                         Standard orientation:
 ---------------------------------------------------------------------
 Center     Atomic      Atomic             Coordinates (Angstroms)
 Number     Number       Type             X           Y           Z
 ---------------------------------------------------------------------
      1          8           0        0.045398   -0.978953    0.000000
      2          1           0       -0.756392   -1.546966    0.000000
      3          1           0        0.842737   -1.553196    0.000000
      4          8           0        0.045398    1.023290    0.000000
      5          1           0        0.082863    2.005177    0.000000
      6          1           0       -0.895570    0.740295    0.000000
 ---------------------------------------------------------------------

 SCF Done:  E(RHF) =  -152.057354341     A.U. after   11 cycles
 E2 =    -0.5353991006D+00 EUMP2 =    -0.15259275344146D+03
 CCSD(T)
 CCSD(T)= -0.15261953323D+03

 The electronic state is 1-A'.
 Alpha  occ. eigenvalues --  -20.53520 -20.51804  -1.33372  -1.28594  -0.70552
 Alpha  occ. eigenvalues --   -0.68122  -0.57648  -0.50288  -0.46772  -0.45321
 Alpha virt. eigenvalues --    0.14052   0.18252   0.19988   0.23873   0.53008
 Alpha virt. eigenvalues --    0.57282   0.58710   0.63442   0.71954   0.76179
 Alpha virt. eigenvalues --    0.80152   0.82358   0.83089   0.84874   0.88255

 Mulliken charges:
               1
     1  O   -0.429398
     2  H    0.205020
     3  H    0.226756
     4  O   -0.413650
     5  H    0.172399
     6  H    0.238875
 Sum of Mulliken charges =  -0.00000

 Dipole moment (field-independent basis, Debye):
    X=             -1.3106    Y=             -0.9124    Z=              0.0000  Tot=              1.5969
 Quadrupole moment (field-independent basis, Debye-Ang):
   XX=             -9.2661   YY=             -5.8853   ZZ=            -14.7106
   XY=             -0.8951   XZ=              0.0000   YZ=              0.0000

 Normal termination of Gaussian 16 at Fri Aug 26 15:57:05 2022.
