 Gaussian 16, Revision A.03,
 Gaussian 16:  ES64L-G16RevA.03 25-Dec-2016

 ------------------
 #p CCSD(T)/cc-pVTZ
 ------------------

 ------------
 H2O_H2O_2536
 ------------
 Symbolic Z-matrix:
 Charge =  0 Multiplicity = 1

                         Standard orientation:
 ---------------------------------------------------------------------
 Center     Atomic      Atomic             Coordinates (Angstroms)
 Number     Number       Type             X           Y           Z
 ---------------------------------------------------------------------
      1          8           0        0.037679   -2.131152    0.000000
      2          1           0       -0.762754   -2.701075    0.000000
      3          1           0        0.836386   -2.703491    0.000000
      4          8           0        0.037679    2.159384    0.000000
      5          1           0        0.263700    3.115638    0.000000
      6          1           0       -0.940192    2.063068    0.000000
 ---------------------------------------------------------------------

 SCF Done:  E(RHF) =  -152.106176290     A.U. after   10 cycles
 E2 =    -0.5261293367D+00 EUMP2 =    -0.15263230562710D+03
 CCSD(T)
 CCSD(T)= -0.15265953884D+03

 The electronic state is 1-A'.
 Alpha  occ. eigenvalues --  -20.55020 -20.54649  -1.32308  -1.31934  -0.69721
 Alpha  occ. eigenvalues --   -0.69333  -0.55699  -0.55305  -0.49411  -0.49040
 Alpha virt. eigenvalues --    0.13952   0.15444   0.20406   0.21169   0.54201
 Alpha virt. eigenvalues --    0.55293   0.57660   0.58020   0.65090   0.73172
 Alpha virt. eigenvalues --    0.79391   0.79899   0.80637   0.81360   0.82694

 Mulliken charges:
               1
     1  O   -0.500814
     2  H    0.248019
     3  H    0.253016
     4  O   -0.500470
     5  H    0.246666
     6  H    0.253582
 Sum of Mulliken charges =  -0.00000

 Dipole moment (field-independent basis, Debye):
    X=             -1.2790    Y=             -0.5066    Z=              0.0000  Tot=              1.3757
 Quadrupole moment (field-independent basis, Debye-Ang):
   XX=             -8.7082   YY=              3.7998   ZZ=            -14.7108
   XY=             -1.9509   XZ=              0.0000   YZ=              0.0000

 Normal termination of Gaussian 16 at Fri Aug 26 13:28:31 2022.
