 Gaussian 16, Revision A.03,
 Gaussian 16:  ES64L-G16RevA.03 25-Dec-2016

 ------------------
 #p CCSD(T)/cc-pVTZ
 ------------------

 ------------
 H2O_H2O_2314
 ------------
 Symbolic Z-matrix:
 Charge =  0 Multiplicity = 1

                         Standard orientation:
 ---------------------------------------------------------------------
 Center     Atomic      Atomic             Coordinates (Angstroms)
 Number     Number       Type             X           Y           Z
 ---------------------------------------------------------------------
      1          8           0        0.045354   -2.002645    0.000000
      2          1           0       -0.755316   -2.572236    0.000000
      3          1           0        0.843823   -2.575316    0.000000
      4          8           0        0.045354    2.047160    0.000000
      5          1           0        0.080884    3.029120    0.000000
      6          1           0       -0.895055    1.762312    0.000000
 ---------------------------------------------------------------------

 SCF Done:  E(RHF) =  -152.106490045     A.U. after   10 cycles
 E2 =    -0.5262034204D+00 EUMP2 =    -0.15263269346524D+03
 CCSD(T)
 CCSD(T)= -0.15265990953D+03

 The electronic state is 1-A'.
 Alpha  occ. eigenvalues --  -20.55185 -20.54507  -1.32469  -1.31788  -0.69883
 Alpha  occ. eigenvalues --   -0.69176  -0.55867  -0.55169  -0.49575  -0.48899
 Alpha virt. eigenvalues --    0.13666   0.15737   0.20262   0.21550   0.53733
 Alpha virt. eigenvalues --    0.55048   0.57546   0.58202   0.64729   0.74689
 Alpha virt. eigenvalues --    0.79157   0.79940   0.80104   0.81539   0.83490

 Mulliken charges:
               1
     1  O   -0.500618
     2  H    0.247237
     3  H    0.254150
     4  O   -0.501318
     5  H    0.245135
     6  H    0.255413
 Sum of Mulliken charges =   0.00000

 Dipole moment (field-independent basis, Debye):
    X=             -1.5335    Y=             -0.8076    Z=              0.0000  Tot=              1.7332
 Quadrupole moment (field-independent basis, Debye-Ang):
   XX=             -9.1066   YY=              2.1748   ZZ=            -14.7121
   XY=             -2.3968   XZ=              0.0000   YZ=              0.0000

 493349\MP4DQ=-152.6417609\MP4SDQ=-152.644836\CCSD=-152.644239\CCSD(T)=
 Normal termination of Gaussian 16 at Sat Aug 27 09:49:08 2022.
