 Gaussian 16, Revision A.03,
 Gaussian 16:  ES64L-G16RevA.03 25-Dec-2016

 ------------------
 #p CCSD(T)/cc-pVTZ
 ------------------

 -----------
 H2O_H2O_273
 -----------
 Symbolic Z-matrix:
 Charge =  0 Multiplicity = 1

                         Standard orientation:
 ---------------------------------------------------------------------
 Center     Atomic      Atomic             Coordinates (Angstroms)
 Number     Number       Type             X           Y           Z
 ---------------------------------------------------------------------
      1          8           0        0.057271   -0.878899    0.000000
      2          1           0       -0.745295   -1.445814    0.000000
      3          1           0        0.853825   -1.454232    0.000000
      4          8           0        0.057271    0.985053    0.000000
      5          1           0       -0.455940    1.822979    0.000000
      6          1           0       -0.568928    0.227833    0.000000
 ---------------------------------------------------------------------

 SCF Done:  E(RHF) =  -151.998117651     A.U. after   11 cycles
 E2 =    -0.5427682571D+00 EUMP2 =    -0.15254088590766D+03
 CCSD(T)
 CCSD(T)= -0.15256623769D+03

 The electronic state is 1-A'.
 Alpha  occ. eigenvalues --  -20.57106 -20.47705  -1.39759  -1.26144  -0.77537
 Alpha  occ. eigenvalues --   -0.72216  -0.54732  -0.50393  -0.47493  -0.43011
 Alpha virt. eigenvalues --    0.12589   0.18191   0.20189   0.27302   0.48844
 Alpha virt. eigenvalues --    0.53709   0.63188   0.68974   0.72995   0.75036
 Alpha virt. eigenvalues --    0.78191   0.78803   0.84056   0.85548   0.88308

 Mulliken charges:
               1
     1  O   -0.326419
     2  H    0.187896
     3  H    0.230385
     4  O   -0.528188
     5  H    0.165860
     6  H    0.270465
 Sum of Mulliken charges =  -0.00000

 Dipole moment (field-independent basis, Debye):
    X=             -1.5802    Y=             -2.7448    Z=              0.0000  Tot=              3.1671
 Quadrupole moment (field-independent basis, Debye-Ang):
   XX=             -9.8207   YY=             -7.9235   ZZ=            -14.5820
   XY=             -2.0146   XZ=              0.0000   YZ=              0.0000

 Normal termination of Gaussian 16 at Fri Aug 26 14:45:28 2022.
