 Gaussian 16, Revision A.03,
 Gaussian 16:  ES64L-G16RevA.03 25-Dec-2016

 ------------------
 #p CCSD(T)/cc-pVTZ
 ------------------

 ------------
 H2O_H2O_2028
 ------------
 Symbolic Z-matrix:
 Charge =  0 Multiplicity = 1

                         Standard orientation:
 ---------------------------------------------------------------------
 Center     Atomic      Atomic             Coordinates (Angstroms)
 Number     Number       Type             X           Y           Z
 ---------------------------------------------------------------------
      1          8           0        0.011143   -1.879382    0.000000
      2          1           0       -0.788719   -2.450106    0.000000
      3          1           0        0.810422   -2.450921    0.000000
      4          8           0        0.011143    1.881565    0.000000
      5          1           0        0.684293    2.597369    0.000000
      6          1           0       -0.884281    2.286191    0.000000
 ---------------------------------------------------------------------

 SCF Done:  E(RHF) =  -152.104729547     A.U. after   10 cycles
 E2 =    -0.5264405010D+00 EUMP2 =    -0.15263117004835D+03
 CCSD(T)
 CCSD(T)= -0.15265841915D+03

 The electronic state is 1-A'.
 Alpha  occ. eigenvalues --  -20.54471 -20.54434  -1.31756  -1.31708  -0.69176
 Alpha  occ. eigenvalues --   -0.69128  -0.55326  -0.54718  -0.48874  -0.48780
 Alpha virt. eigenvalues --    0.14186   0.15845   0.20611   0.21263   0.53906
 Alpha virt. eigenvalues --    0.56678   0.57943   0.58275   0.61403   0.75445
 Alpha virt. eigenvalues --    0.79345   0.80203   0.80680   0.80877   0.82716

 Mulliken charges:
               1
     1  O   -0.490540
     2  H    0.244271
     3  H    0.246322
     4  O   -0.490511
     5  H    0.244012
     6  H    0.246446
 Sum of Mulliken charges =  -0.00000

 Dipole moment (field-independent basis, Debye):
    X=             -0.3747    Y=             -0.0400    Z=              0.0000  Tot=              0.3769
 Quadrupole moment (field-independent basis, Debye-Ang):
   XX=             -7.9218   YY=              2.7965   ZZ=            -14.7092
   XY=             -0.3877   XZ=              0.0000   YZ=              0.0000

 Normal termination of Gaussian 16 at Sat Aug 27 08:11:08 2022.
