 Gaussian 16, Revision A.03,
 Gaussian 16:  ES64L-G16RevA.03 25-Dec-2016

 ------------------
 #p CCSD(T)/cc-pVTZ
 ------------------

 ------------
 H2O_H2O_2234
 ------------
 Symbolic Z-matrix:
 Charge =  0 Multiplicity = 1

                         Standard orientation:
 ---------------------------------------------------------------------
 Center     Atomic      Atomic             Coordinates (Angstroms)
 Number     Number       Type             X           Y           Z
 ---------------------------------------------------------------------
      1          8           0        0.031744   -1.976527    0.000000
      2          1           0       -0.768612   -2.546558    0.000000
      3          1           0        0.830528   -2.548758    0.000000
      4          8           0        0.031744    1.995690    0.000000
      5          1           0        0.380522    2.914308    0.000000
      6          1           0       -0.950336    2.027701    0.000000
 ---------------------------------------------------------------------

 SCF Done:  E(RHF) =  -152.105630924     A.U. after   10 cycles
 E2 =    -0.5262802694D+00 EUMP2 =    -0.15263191119357D+03
 CCSD(T)
 CCSD(T)= -0.15265914606D+03

 The electronic state is 1-A'.
 Alpha  occ. eigenvalues --  -20.54813 -20.54517  -1.32096  -1.31796  -0.69512
 Alpha  occ. eigenvalues --   -0.69200  -0.55512  -0.55070  -0.49198  -0.48897
 Alpha virt. eigenvalues --    0.13976   0.15703   0.20469   0.21291   0.53822
 Alpha virt. eigenvalues --    0.55646   0.57808   0.58158   0.63386   0.74837
 Alpha virt. eigenvalues --    0.79378   0.80250   0.80309   0.81124   0.82679

 Mulliken charges:
               1
     1  O   -0.496407
     2  H    0.245798
     3  H    0.250918
     4  O   -0.496248
     5  H    0.244626
     6  H    0.251313
 Sum of Mulliken charges =   0.00000

 Dipole moment (field-independent basis, Debye):
    X=             -1.0720    Y=             -0.3479    Z=              0.0000  Tot=              1.1270
 Quadrupole moment (field-independent basis, Debye-Ang):
   XX=             -8.4595   YY=              3.0315   ZZ=            -14.7104
   XY=             -1.3841   XZ=              0.0000   YZ=              0.0000

 Normal termination of Gaussian 16 at Sat Aug 27 09:21:51 2022.
