 Gaussian 16, Revision A.03,
 Gaussian 16:  ES64L-G16RevA.03 25-Dec-2016

 ------------------
 #p CCSD(T)/cc-pVTZ
 ------------------

 ------------
 H2O_H2O_4932
 ------------
 Symbolic Z-matrix:
 Charge =  0 Multiplicity = 1

                         Standard orientation:
 ---------------------------------------------------------------------
 Center     Atomic      Atomic             Coordinates (Angstroms)
 Number     Number       Type             X           Y           Z
 ---------------------------------------------------------------------
      1          8           0        0.025264   -3.416513    0.000000
      2          1           0       -0.774669   -3.987137    0.000000
      3          1           0        0.824472   -3.988153    0.000000
      4          8           0        0.025264    3.428261    0.000000
      5          1           0        0.490322    4.293839    0.000000
      6          1           0       -0.944354    3.587468    0.000000
 ---------------------------------------------------------------------

 SCF Done:  E(RHF) =  -152.107028553     A.U. after   10 cycles
 E2 =    -0.5259072012D+00 EUMP2 =    -0.15263293575427D+03
 CCSD(T)
 CCSD(T)= -0.15266016428D+03

 The electronic state is 1-A'.
 Alpha  occ. eigenvalues --  -20.55310 -20.55253  -1.32607  -1.32549  -0.70013
 Alpha  occ. eigenvalues --   -0.69955  -0.56037  -0.55979  -0.49716  -0.49658
 Alpha virt. eigenvalues --    0.14336   0.14394   0.20391   0.20451   0.54554
 Alpha virt. eigenvalues --    0.54616   0.57438   0.57495   0.68182   0.68241
 Alpha virt. eigenvalues --    0.79164   0.79221   0.80603   0.80666   0.82528

 Mulliken charges:
               1
     1  O   -0.506626
     2  H    0.252858
     3  H    0.253769
     4  O   -0.506581
     5  H    0.252615
     6  H    0.253966
 Sum of Mulliken charges =  -0.00000

 Dipole moment (field-independent basis, Debye):
    X=             -0.8690    Y=             -0.2046    Z=              0.0000  Tot=              0.8928
 Quadrupole moment (field-independent basis, Debye-Ang):
   XX=             -8.2028   YY=             14.3208   ZZ=            -14.7110
   XY=             -2.2710   XZ=              0.0000   YZ=              0.0000

 Normal termination of Gaussian 16 at Sat Aug 27 10:11:45 2022.
