 Gaussian 16, Revision A.03,
 Gaussian 16:  ES64L-G16RevA.03 25-Dec-2016

 ------------------
 #p CCSD(T)/cc-pVTZ
 ------------------

 -----------
 H2O_H2O_110
 -----------
 Symbolic Z-matrix:
 Charge =  0 Multiplicity = 1

                         Standard orientation:
 ---------------------------------------------------------------------
 Center     Atomic      Atomic             Coordinates (Angstroms)
 Number     Number       Type             X           Y           Z
 ---------------------------------------------------------------------
      1          8           0        0.034809   -0.844091    0.000000
      2          1           0       -0.766754   -1.412423    0.000000
      3          1           0        0.832378   -1.418016    0.000000
      4          8           0        0.034809    0.867452    0.000000
      5          1           0        0.324755    1.806302    0.000000
      6          1           0       -0.947328    0.837248    0.000000
 ---------------------------------------------------------------------

 SCF Done:  E(RHF) =  -151.972457320     A.U. after   12 cycles
 E2 =    -0.5453137652D+00 EUMP2 =    -0.15251777108499D+03
 CCSD(T)
 CCSD(T)= -0.15254324466D+03

 The electronic state is 1-A'.
 Alpha  occ. eigenvalues --  -20.52143 -20.51401  -1.35863  -1.27123  -0.71916
 Alpha  occ. eigenvalues --   -0.68574  -0.61238  -0.52109  -0.43629  -0.37966
 Alpha virt. eigenvalues --    0.14232   0.18986   0.19866   0.23562   0.53570
 Alpha virt. eigenvalues --    0.56101   0.58701   0.65407   0.71948   0.78043
 Alpha virt. eigenvalues --    0.79795   0.82603   0.83128   0.84864   0.88813

 Mulliken charges:
               1
     1  O   -0.374967
     2  H    0.176387
     3  H    0.199492
     4  O   -0.353271
     5  H    0.125568
     6  H    0.226791
 Sum of Mulliken charges =   0.00000

 Dipole moment (field-independent basis, Debye):
    X=             -0.9562    Y=             -0.5542    Z=              0.0000  Tot=              1.1052
 Quadrupole moment (field-independent basis, Debye-Ang):
   XX=             -8.9322   YY=             -8.1145   ZZ=            -14.7030
   XY=             -0.4592   XZ=              0.0000   YZ=              0.0000

 10779\MP4DQ=-152.522416\MP4SDQ=-152.5264402\CCSD=-152.5253286\CCSD(T)=
 Normal termination of Gaussian 16 at Fri Aug 26 12:51:22 2022.
