 Gaussian 16, Revision A.03,
 Gaussian 16:  ES64L-G16RevA.03 25-Dec-2016

 ------------------
 #p CCSD(T)/cc-pVTZ
 ------------------

 ------------
 H2O_H2O_3764
 ------------
 Symbolic Z-matrix:
 Charge =  0 Multiplicity = 1

                         Standard orientation:
 ---------------------------------------------------------------------
 Center     Atomic      Atomic             Coordinates (Angstroms)
 Number     Number       Type             X           Y           Z
 ---------------------------------------------------------------------
      1          8           0        0.045342   -2.773783    0.000000
      2          1           0       -0.755025   -3.343799    0.000000
      3          1           0        0.844116   -3.346030    0.000000
      4          8           0        0.045342    2.818346    0.000000
      5          1           0        0.080351    3.800324    0.000000
      6          1           0       -0.894915    2.532998    0.000000
 ---------------------------------------------------------------------

 SCF Done:  E(RHF) =  -152.107025645     A.U. after   10 cycles
 E2 =    -0.5259282729D+00 EUMP2 =    -0.15263295391772D+03
 CCSD(T)
 CCSD(T)= -0.15266018116D+03

 The electronic state is 1-A'.
 Alpha  occ. eigenvalues --  -20.55368 -20.55035  -1.32665  -1.32330  -0.70072
 Alpha  occ. eigenvalues --   -0.69729  -0.56094  -0.55759  -0.49774  -0.49440
 Alpha virt. eigenvalues --    0.14207   0.14667   0.20316   0.20704   0.54482
 Alpha virt. eigenvalues --    0.54854   0.57377   0.57712   0.67923   0.68682
 Alpha virt. eigenvalues --    0.79106   0.79434   0.80541   0.80886   0.82518

 Mulliken charges:
               1
     1  O   -0.506649
     2  H    0.251877
     3  H    0.254778
     4  O   -0.506338
     5  H    0.250828
     6  H    0.255503
 Sum of Mulliken charges =  -0.00000

 Dipole moment (field-independent basis, Debye):
    X=             -1.5547    Y=             -0.7822    Z=              0.0000  Tot=              1.7404
 Quadrupole moment (field-independent basis, Debye-Ang):
   XX=             -9.0976   YY=              7.1995   ZZ=            -14.7113
   XY=             -3.5772   XZ=              0.0000   YZ=              0.0000

 Normal termination of Gaussian 16 at Sat Aug 27 03:07:34 2022.
