 Gaussian 16, Revision A.03,
 Gaussian 16:  ES64L-G16RevA.03 25-Dec-2016

 ------------------
 #p CCSD(T)/cc-pVTZ
 ------------------

 ------------
 H2O_H2O_2696
 ------------
 Symbolic Z-matrix:
 Charge =  0 Multiplicity = 1

                         Standard orientation:
 ---------------------------------------------------------------------
 Center     Atomic      Atomic             Coordinates (Angstroms)
 Number     Number       Type             X           Y           Z
 ---------------------------------------------------------------------
      1          8           0        0.056115   -2.176460    0.000000
      2          1           0       -0.744693   -2.745856    0.000000
      3          1           0        0.854445   -2.749325    0.000000
      4          8           0        0.056115    2.268159    0.000000
      5          1           0       -0.346109    3.164663    0.000000
      6          1           0       -0.661490    1.596928    0.000000
 ---------------------------------------------------------------------

 SCF Done:  E(RHF) =  -152.107898393     A.U. after   10 cycles
 E2 =    -0.5260161817D+00 EUMP2 =    -0.15263391457515D+03
 CCSD(T)
 CCSD(T)= -0.15266110535D+03

 The electronic state is 1-A'.
 Alpha  occ. eigenvalues --  -20.55787 -20.54603  -1.33074  -1.31899  -0.70481
 Alpha  occ. eigenvalues --   -0.69279  -0.56531  -0.55351  -0.50189  -0.49019
 Alpha virt. eigenvalues --    0.13251   0.15567   0.19968   0.21757   0.54016
 Alpha virt. eigenvalues --    0.54755   0.57066   0.58154   0.66407   0.71860
 Alpha virt. eigenvalues --    0.78695   0.79601   0.79843   0.80938   0.82616

 Mulliken charges:
               1
     1  O   -0.508277
     2  H    0.251528
     3  H    0.257924
     4  O   -0.510072
     5  H    0.248305
     6  H    0.260591
 Sum of Mulliken charges =   0.00000

 Dipole moment (field-independent basis, Debye):
    X=             -1.9093    Y=             -1.6511    Z=              0.0000  Tot=              2.5242
 Quadrupole moment (field-independent basis, Debye-Ang):
   XX=             -9.7823   YY=              0.4553   ZZ=            -14.7146
   XY=             -4.1689   XZ=              0.0000   YZ=              0.0000

 Normal termination of Gaussian 16 at Fri Aug 26 15:10:59 2022.
