 Gaussian 16, Revision A.03,
 Gaussian 16:  ES64L-G16RevA.03 25-Dec-2016

 ------------------
 #p CCSD(T)/cc-pVTZ
 ------------------

 ------------
 H2O_H2O_3411
 ------------
 Symbolic Z-matrix:
 Charge =  0 Multiplicity = 1

                         Standard orientation:
 ---------------------------------------------------------------------
 Center     Atomic      Atomic             Coordinates (Angstroms)
 Number     Number       Type             X           Y           Z
 ---------------------------------------------------------------------
      1          8           0        0.037675   -2.596498    0.000000
      2          1           0       -0.762605   -3.166637    0.000000
      3          1           0        0.836536   -3.168622    0.000000
      4          8           0        0.037675    2.624751    0.000000
      5          1           0        0.263439    3.581065    0.000000
      6          1           0       -0.940170    2.528171    0.000000
 ---------------------------------------------------------------------

 SCF Done:  E(RHF) =  -152.106695493     A.U. after   10 cycles
 E2 =    -0.5259691644D+00 EUMP2 =    -0.15263266465757D+03
 CCSD(T)
 CCSD(T)= -0.15265989817D+03

 The electronic state is 1-A'.
 Alpha  occ. eigenvalues --  -20.55201 -20.54959  -1.32496  -1.32252  -0.69905
 Alpha  occ. eigenvalues --   -0.69654  -0.55910  -0.55666  -0.49602  -0.49360
 Alpha virt. eigenvalues --    0.14274   0.14784   0.20418   0.20749   0.54627
 Alpha virt. eigenvalues --    0.54943   0.57516   0.57764   0.67758   0.69210
 Alpha virt. eigenvalues --    0.79276   0.79514   0.80704   0.80989   0.82704

 Mulliken charges:
               1
     1  O   -0.504700
     2  H    0.250887
     3  H    0.253823
     4  O   -0.504386
     5  H    0.250019
     6  H    0.254356
 Sum of Mulliken charges =  -0.00000

 Dipole moment (field-independent basis, Debye):
    X=             -1.2894    Y=             -0.4974    Z=              0.0000  Tot=              1.3820
 Quadrupole moment (field-independent basis, Debye-Ang):
   XX=             -8.6998   YY=              7.1071   ZZ=            -14.7108
   XY=             -2.5419   XZ=              0.0000   YZ=              0.0000

 Normal termination of Gaussian 16 at Fri Aug 26 22:06:40 2022.
