 Gaussian 16, Revision A.03,
 Gaussian 16:  ES64L-G16RevA.03 25-Dec-2016

 ------------------
 #p CCSD(T)/cc-pVTZ
 ------------------

 ------------
 H2O_H2O_2120
 ------------
 Symbolic Z-matrix:
 Charge =  0 Multiplicity = 1

                         Standard orientation:
 ---------------------------------------------------------------------
 Center     Atomic      Atomic             Coordinates (Angstroms)
 Number     Number       Type             X           Y           Z
 ---------------------------------------------------------------------
      1          8           0        0.055272   -1.874623    0.000000
      2          1           0       -0.745712   -2.443772    0.000000
      3          1           0        0.853425   -2.447734    0.000000
      4          8           0        0.055272    1.959012    0.000000
      5          1           0       -0.287174    2.880009    0.000000
      6          1           0       -0.704888    1.336386    0.000000
 ---------------------------------------------------------------------

 SCF Done:  E(RHF) =  -152.107957208     A.U. after   10 cycles
 E2 =    -0.5262762921D+00 EUMP2 =    -0.15263423350061D+03
 CCSD(T)
 CCSD(T)= -0.15266140270D+03

 The electronic state is 1-A'.
 Alpha  occ. eigenvalues --  -20.55796 -20.54257  -1.33069  -1.31546  -0.70479
 Alpha  occ. eigenvalues --   -0.68915  -0.56509  -0.54992  -0.50186  -0.48670
 Alpha virt. eigenvalues --    0.13182   0.16142   0.19933   0.22724   0.54097
 Alpha virt. eigenvalues --    0.54495   0.57056   0.58551   0.65534   0.74748
 Alpha virt. eigenvalues --    0.78460   0.79060   0.80361   0.80441   0.84226

 Mulliken charges:
               1
     1  O   -0.502107
     2  H    0.248146
     3  H    0.257144
     4  O   -0.508813
     5  H    0.244592
     6  H    0.261038
 Sum of Mulliken charges =  -0.00000

 Dipole moment (field-independent basis, Debye):
    X=             -1.8610    Y=             -1.5576    Z=              0.0000  Tot=              2.4268
 Quadrupole moment (field-independent basis, Debye-Ang):
   XX=             -9.7244   YY=             -0.5974   ZZ=            -14.7163
   XY=             -3.4135   XZ=              0.0000   YZ=              0.0000

 Normal termination of Gaussian 16 at Sat Aug 27 08:42:09 2022.
