 Gaussian 16, Revision A.03,
 Gaussian 16:  ES64L-G16RevA.03 25-Dec-2016

 ------------------
 #p CCSD(T)/cc-pVTZ
 ------------------

 -----------
 H2O_H2O_539
 -----------
 Symbolic Z-matrix:
 Charge =  0 Multiplicity = 1

                         Standard orientation:
 ---------------------------------------------------------------------
 Center     Atomic      Atomic             Coordinates (Angstroms)
 Number     Number       Type             X           Y           Z
 ---------------------------------------------------------------------
      1          8           0        0.045391   -1.058715    0.000000
      2          1           0       -0.756235   -1.626958    0.000000
      3          1           0        0.842896   -1.632729    0.000000
      4          8           0        0.045391    1.103078    0.000000
      5          1           0        0.082574    2.084976    0.000000
      6          1           0       -0.895495    0.819811    0.000000
 ---------------------------------------------------------------------

 SCF Done:  E(RHF) =  -152.078036739     A.U. after   11 cycles
 E2 =    -0.5325242968D+00 EUMP2 =    -0.15261056103568D+03
 CCSD(T)
 CCSD(T)= -0.15263758039D+03

 The electronic state is 1-A'.
 Alpha  occ. eigenvalues --  -20.53900 -20.52221  -1.32647  -1.29248  -0.69900
 Alpha  occ. eigenvalues --   -0.67910  -0.57228  -0.49750  -0.48999  -0.46036
 Alpha virt. eigenvalues --    0.14024   0.17955   0.20070   0.23752   0.53034
 Alpha virt. eigenvalues --    0.57547   0.58553   0.62393   0.71455   0.75647
 Alpha virt. eigenvalues --    0.79390   0.81985   0.83256   0.85188   0.87945

 Mulliken charges:
               1
     1  O   -0.449427
     2  H    0.216166
     3  H    0.235869
     4  O   -0.433711
     5  H    0.188675
     6  H    0.242428
 Sum of Mulliken charges =  -0.00000

 Dipole moment (field-independent basis, Debye):
    X=             -1.3516    Y=             -0.8933    Z=              0.0000  Tot=              1.6201
 Quadrupole moment (field-independent basis, Debye-Ang):
   XX=             -9.2395   YY=             -4.9834   ZZ=            -14.7220
   XY=             -1.0045   XZ=              0.0000   YZ=              0.0000

 264734\MP4DQ=-152.6184277\MP4SDQ=-152.621801\CCSD=-152.621092\CCSD(T)=
 Normal termination of Gaussian 16 at Fri Aug 26 17:27:33 2022.
