 Gaussian 16, Revision A.03,
 Gaussian 16:  ES64L-G16RevA.03 25-Dec-2016

 ------------------
 #p CCSD(T)/cc-pVTZ
 ------------------

 ------------
 H2O_H2O_1562
 ------------
 Symbolic Z-matrix:
 Charge =  0 Multiplicity = 1

                         Standard orientation:
 ---------------------------------------------------------------------
 Center     Atomic      Atomic             Coordinates (Angstroms)
 Number     Number       Type             X           Y           Z
 ---------------------------------------------------------------------
      1          8           0        0.040421   -1.609867    0.000000
      2          1           0       -0.760369   -2.179289    0.000000
      3          1           0        0.838769   -2.182707    0.000000
      4          8           0        0.040421    1.643150    0.000000
      5          1           0        0.204023    2.612037    0.000000
      6          1           0       -0.929156    1.483691    0.000000
 ---------------------------------------------------------------------

 SCF Done:  E(RHF) =  -152.104790910     A.U. after   10 cycles
 E2 =    -0.5269268797D+00 EUMP2 =    -0.15263171778975D+03
 CCSD(T)
 CCSD(T)= -0.15265894002D+03

 The electronic state is 1-A'.
 Alpha  occ. eigenvalues --  -20.54767 -20.53998  -1.32055  -1.31255  -0.69480
 Alpha  occ. eigenvalues --   -0.68654  -0.55668  -0.54222  -0.49171  -0.48344
 Alpha virt. eigenvalues --    0.13892   0.16491   0.20301   0.22198   0.53385
 Alpha virt. eigenvalues --    0.56177   0.57842   0.58669   0.64576   0.76852
 Alpha virt. eigenvalues --    0.78084   0.78626   0.79102   0.81772   0.85437

 Mulliken charges:
               1
     1  O   -0.485187
     2  H    0.238325
     3  H    0.248719
     4  O   -0.485718
     5  H    0.234796
     6  H    0.249065
 Sum of Mulliken charges =  -0.00000

 Dipole moment (field-independent basis, Debye):
    X=             -1.3350    Y=             -0.6262    Z=              0.0000  Tot=              1.4745
 Quadrupole moment (field-independent basis, Debye-Ang):
   XX=             -8.8732   YY=             -0.1653   ZZ=            -14.7129
   XY=             -1.4580   XZ=              0.0000   YZ=              0.0000

 Normal termination of Gaussian 16 at Sat Aug 27 05:29:07 2022.
