 Gaussian 16, Revision A.03,
 Gaussian 16:  ES64L-G16RevA.03 25-Dec-2016

 ------------------
 #p CCSD(T)/cc-pVTZ
 ------------------

 ------------
 H2O_H2O_4972
 ------------
 Symbolic Z-matrix:
 Charge =  0 Multiplicity = 1

                         Standard orientation:
 ---------------------------------------------------------------------
 Center     Atomic      Atomic             Coordinates (Angstroms)
 Number     Number       Type             X           Y           Z
 ---------------------------------------------------------------------
      1          8           0        0.056695   -3.382340    0.000000
      2          1           0       -0.743686   -3.952336    0.000000
      3          1           0        0.855454   -3.954607    0.000000
      4          8           0        0.056695    3.481496    0.000000
      5          1           0       -0.403954    4.349429    0.000000
      6          1           0       -0.614935    2.764265    0.000000
 ---------------------------------------------------------------------

 SCF Done:  E(RHF) =  -152.107567139     A.U. after   10 cycles
 E2 =    -0.5258594994D+00 EUMP2 =    -0.15263342663843D+03
 CCSD(T)
 CCSD(T)= -0.15266064373D+03

 The electronic state is 1-A'.
 Alpha  occ. eigenvalues --  -20.55701 -20.55222  -1.33000  -1.32522  -0.70406
 Alpha  occ. eigenvalues --   -0.69922  -0.56455  -0.55972  -0.50113  -0.49636
 Alpha virt. eigenvalues --    0.13989   0.14467   0.20071   0.20577   0.54154
 Alpha virt. eigenvalues --    0.54648   0.57086   0.57564   0.67721   0.68217
 Alpha virt. eigenvalues --    0.78766   0.79238   0.80195   0.80699   0.82118

 Mulliken charges:
               1
     1  O   -0.509823
     2  H    0.253977
     3  H    0.255846
     4  O   -0.509573
     5  H    0.252832
     6  H    0.256741
 Sum of Mulliken charges =  -0.00000

 Dipole moment (field-independent basis, Debye):
    X=             -1.9508    Y=             -1.7282    Z=              0.0000  Tot=              2.6062
 Quadrupole moment (field-independent basis, Debye-Ang):
   XX=             -9.8287   YY=              5.3862   ZZ=            -14.7124
   XY=             -6.6786   XZ=              0.0000   YZ=              0.0000

 Normal termination of Gaussian 16 at Sat Aug 27 10:24:53 2022.
