 Gaussian 16, Revision A.03,
 Gaussian 16:  ES64L-G16RevA.03 25-Dec-2016

 ------------------
 #p CCSD(T)/cc-pVTZ
 ------------------

 ------------
 H2O_H2O_4037
 ------------
 Symbolic Z-matrix:
 Charge =  0 Multiplicity = 1

                         Standard orientation:
 ---------------------------------------------------------------------
 Center     Atomic      Atomic             Coordinates (Angstroms)
 Number     Number       Type             X           Y           Z
 ---------------------------------------------------------------------
      1          8           0        0.040405   -2.926122    0.000000
      2          1           0       -0.759840   -3.496309    0.000000
      3          1           0        0.839301   -3.498198    0.000000
      4          8           0        0.040405    2.959483    0.000000
      5          1           0        0.203081    3.928524    0.000000
      6          1           0       -0.929019    2.799097    0.000000
 ---------------------------------------------------------------------

 SCF Done:  E(RHF) =  -152.106977394     A.U. after   10 cycles
 E2 =    -0.5259244176D+00 EUMP2 =    -0.15263290181157D+03
 CCSD(T)
 CCSD(T)= -0.15266013064D+03

 The electronic state is 1-A'.
 Alpha  occ. eigenvalues --  -20.55324 -20.55101  -1.32621  -1.32396  -0.70028
 Alpha  occ. eigenvalues --   -0.69798  -0.56048  -0.55824  -0.49729  -0.49505
 Alpha virt. eigenvalues --    0.14292   0.14561   0.20363   0.20611   0.54535
 Alpha virt. eigenvalues --    0.54782   0.57418   0.57644   0.68104   0.68475
 Alpha virt. eigenvalues --    0.79150   0.79370   0.80589   0.80831   0.82524

 Mulliken charges:
               1
     1  O   -0.506349
     2  H    0.252056
     3  H    0.254294
     4  O   -0.506142
     5  H    0.251331
     6  H    0.254811
 Sum of Mulliken charges =  -0.00000

 Dipole moment (field-independent basis, Debye):
    X=             -1.3868    Y=             -0.5840    Z=              0.0000  Tot=              1.5047
 Quadrupole moment (field-independent basis, Debye-Ang):
   XX=             -8.8311   YY=              9.0511   ZZ=            -14.7111
   XY=             -3.2466   XZ=              0.0000   YZ=              0.0000

 Normal termination of Gaussian 16 at Sat Aug 27 05:01:29 2022.
