 Gaussian 16, Revision A.03,
 Gaussian 16:  ES64L-G16RevA.03 25-Dec-2016

 ------------------
 #p CCSD(T)/cc-pVTZ
 ------------------

 -----------
 H2O_H2O_275
 -----------
 Symbolic Z-matrix:
 Charge =  0 Multiplicity = 1

                         Standard orientation:
 ---------------------------------------------------------------------
 Center     Atomic      Atomic             Coordinates (Angstroms)
 Number     Number       Type             X           Y           Z
 ---------------------------------------------------------------------
      1          8           0        0.000000   -0.000000    0.949854
      2          1           0        0.000000    0.799571    1.520986
      3          1           0       -0.000000   -0.799571    1.520986
      4          8           0        0.000000   -0.000000   -0.949854
      5          1           0       -0.000000   -0.799571   -1.520986
      6          1           0        0.000000    0.799571   -1.520986
 ---------------------------------------------------------------------

 SCF Done:  E(RHF) =  -152.027337838     A.U. after   11 cycles
 E2 =    -0.5381501543D+00 EUMP2 =    -0.15256548799232D+03
 CCSD(T)
 CCSD(T)= -0.15259196195D+03

 The electronic state is 1-AG.
 Alpha  occ. eigenvalues --  -20.51448 -20.51446  -1.32593  -1.28008  -0.68765
 Alpha  occ. eigenvalues --   -0.66050  -0.62748  -0.49682  -0.44346  -0.41070
 Alpha virt. eigenvalues --    0.14681   0.18767   0.20371   0.22893   0.50257
 Alpha virt. eigenvalues --    0.59224   0.59301   0.66938   0.68992   0.78647
 Alpha virt. eigenvalues --    0.79888   0.83468   0.84509   0.86603   0.87441

 Mulliken charges:
               1
     1  O   -0.412589
     2  H    0.206294
     3  H    0.206294
     4  O   -0.412589
     5  H    0.206294
     6  H    0.206294
 Sum of Mulliken charges =  -0.00000

 Dipole moment (field-independent basis, Debye):
    X=             -0.0000    Y=              0.0000    Z=              0.0000  Tot=              0.0000
 Quadrupole moment (field-independent basis, Debye-Ang):
   XX=            -14.7573   YY=             -8.2252   ZZ=             -6.5135
   XY=              0.0000   XZ=             -0.0000   YZ=             -0.0000

 MP4DQ=-152.5719385\MP4SDQ=-152.5756378\CCSD=-152.5747696\CCSD(T)=-152.
 Normal termination of Gaussian 16 at Fri Aug 26 14:46:32 2022.
