 Gaussian 16, Revision A.03,
 Gaussian 16:  ES64L-G16RevA.03 25-Dec-2016

 ------------------
 #p CCSD(T)/cc-pVTZ
 ------------------

 ------------
 H2O_H2O_4830
 ------------
 Symbolic Z-matrix:
 Charge =  0 Multiplicity = 1

                         Standard orientation:
 ---------------------------------------------------------------------
 Center     Atomic      Atomic             Coordinates (Angstroms)
 Number     Number       Type             X           Y           Z
 ---------------------------------------------------------------------
      1          8           0        0.018360   -3.366426    0.000000
      2          1           0       -0.781479   -3.937183    0.000000
      3          1           0        0.817663   -3.937933    0.000000
      4          8           0        0.018360    3.372471    0.000000
      5          1           0        0.592288    4.170038    0.000000
      6          1           0       -0.922229    3.656720    0.000000
 ---------------------------------------------------------------------

 SCF Done:  E(RHF) =  -152.106970113     A.U. after   10 cycles
 E2 =    -0.5259130098D+00 EUMP2 =    -0.15263288312257D+03
 CCSD(T)
 CCSD(T)= -0.15266011285D+03

 The electronic state is 1-A'.
 Alpha  occ. eigenvalues --  -20.55272 -20.55242  -1.32569  -1.32538  -0.69975
 Alpha  occ. eigenvalues --   -0.69944  -0.55996  -0.55965  -0.49677  -0.49646
 Alpha virt. eigenvalues --    0.14368   0.14400   0.20421   0.20453   0.54592
 Alpha virt. eigenvalues --    0.54626   0.57471   0.57502   0.68226   0.68260
 Alpha virt. eigenvalues --    0.79202   0.79233   0.80643   0.80677   0.82569

 Mulliken charges:
               1
     1  O   -0.506280
     2  H    0.252794
     3  H    0.253487
     4  O   -0.506254
     5  H    0.252625
     6  H    0.253629
 Sum of Mulliken charges =  -0.00000

 Dipole moment (field-independent basis, Debye):
    X=             -0.6314    Y=             -0.1053    Z=              0.0000  Tot=              0.6401
 Quadrupole moment (field-independent basis, Debye-Ang):
   XX=             -8.0133   YY=             14.4108   ZZ=            -14.7109
   XY=             -1.5841   XZ=              0.0000   YZ=              0.0000

 Normal termination of Gaussian 16 at Sat Aug 27 09:34:29 2022.
