 Gaussian 16, Revision A.03,
 Gaussian 16:  ES64L-G16RevA.03 25-Dec-2016

 ------------------
 #p CCSD(T)/cc-pVTZ
 ------------------

 ------------
 H2O_H2O_4617
 ------------
 Symbolic Z-matrix:
 Charge =  0 Multiplicity = 1

                         Standard orientation:
 ---------------------------------------------------------------------
 Center     Atomic      Atomic             Coordinates (Angstroms)
 Number     Number       Type             X           Y           Z
 ---------------------------------------------------------------------
      1          8           0        0.051266   -3.215524    0.000000
      2          1           0       -0.749079   -3.785570    0.000000
      3          1           0        0.850061   -3.787742    0.000000
      4          8           0        0.051266    3.279091    0.000000
      5          1           0       -0.106008    4.249024    0.000000
      6          1           0       -0.815238    2.815758    0.000000
 ---------------------------------------------------------------------

 SCF Done:  E(RHF) =  -152.107327625     A.U. after   10 cycles
 E2 =    -0.5258849492D+00 EUMP2 =    -0.15263321257377D+03
 CCSD(T)
 CCSD(T)= -0.15266043447D+03

 The electronic state is 1-A'.
 Alpha  occ. eigenvalues --  -20.55534 -20.55186  -1.32833  -1.32484  -0.70239
 Alpha  occ. eigenvalues --   -0.69885  -0.56276  -0.55926  -0.49944  -0.49596
 Alpha virt. eigenvalues --    0.14132   0.14486   0.20205   0.20575   0.54323
 Alpha virt. eigenvalues --    0.54690   0.57235   0.57584   0.67913   0.68282
 Alpha virt. eigenvalues --    0.78936   0.79279   0.80369   0.80740   0.82295

 Mulliken charges:
               1
     1  O   -0.508411
     2  H    0.253157
     3  H    0.255255
     4  O   -0.508200
     5  H    0.252229
     6  H    0.255971
 Sum of Mulliken charges =  -0.00000

 Dipole moment (field-independent basis, Debye):
    X=             -1.7627    Y=             -1.1095    Z=              0.0000  Tot=              2.0828
 Quadrupole moment (field-independent basis, Debye-Ang):
   XX=             -9.4578   YY=              8.2833   ZZ=            -14.7118
   XY=             -5.1401   XZ=              0.0000   YZ=              0.0000

 Normal termination of Gaussian 16 at Sat Aug 27 08:21:44 2022.
