 Gaussian 16, Revision A.03,
 Gaussian 16:  ES64L-G16RevA.03 25-Dec-2016

 ------------------
 #p CCSD(T)/cc-pVTZ
 ------------------

 ------------
 H2O_H2O_1096
 ------------
 Symbolic Z-matrix:
 Charge =  0 Multiplicity = 1

                         Standard orientation:
 ---------------------------------------------------------------------
 Center     Atomic      Atomic             Coordinates (Angstroms)
 Number     Number       Type             X           Y           Z
 ---------------------------------------------------------------------
      1          8           0        0.056177   -1.325600    0.000000
      2          1           0       -0.745397   -1.893917    0.000000
      3          1           0        0.853735   -1.899540    0.000000
      4          8           0        0.056177    1.417148    0.000000
      5          1           0       -0.344840    2.314193    0.000000
      6          1           0       -0.662331    0.746885    0.000000
 ---------------------------------------------------------------------

 SCF Done:  E(RHF) =  -152.105988181     A.U. after   10 cycles
 E2 =    -0.5284180655D+00 EUMP2 =    -0.15263440624624D+03
 CCSD(T)
 CCSD(T)= -0.15266147314D+03

 The electronic state is 1-A'.
 Alpha  occ. eigenvalues --  -20.56236 -20.52822  -1.33696  -1.30152  -0.71088
 Alpha  occ. eigenvalues --   -0.68003  -0.56653  -0.53632  -0.50789  -0.47254
 Alpha virt. eigenvalues --    0.13199   0.17611   0.19641   0.25166   0.52014
 Alpha virt. eigenvalues --    0.56605   0.57852   0.59560   0.70439   0.74511
 Alpha virt. eigenvalues --    0.75082   0.79933   0.82511   0.83199   0.84191

 Mulliken charges:
               1
     1  O   -0.480686
     2  H    0.239274
     3  H    0.256358
     4  O   -0.504776
     5  H    0.227907
     6  H    0.261924
 Sum of Mulliken charges =  -0.00000

 Dipole moment (field-independent basis, Debye):
    X=             -1.7997    Y=             -1.8469    Z=              0.0000  Tot=              2.5788
 Quadrupole moment (field-independent basis, Debye-Ang):
   XX=             -9.7958   YY=             -3.9300   ZZ=            -14.7258
   XY=             -2.5902   XZ=              0.0000   YZ=              0.0000

 Normal termination of Gaussian 16 at Sat Aug 27 02:06:15 2022.
