 Gaussian 16, Revision A.03,
 Gaussian 16:  ES64L-G16RevA.03 25-Dec-2016

 ------------------
 #p CCSD(T)/cc-pVTZ
 ------------------

 ------------
 H2O_H2O_2016
 ------------
 Symbolic Z-matrix:
 Charge =  0 Multiplicity = 1

                         Standard orientation:
 ---------------------------------------------------------------------
 Center     Atomic      Atomic             Coordinates (Angstroms)
 Number     Number       Type             X           Y           Z
 ---------------------------------------------------------------------
      1          8           0        0.049527   -1.836375    0.000000
      2          1           0       -0.751346   -2.405680    0.000000
      3          1           0        0.847791   -2.409331    0.000000
      4          8           0        0.049527    1.893262    0.000000
      5          1           0       -0.043069    2.871491    0.000000
      6          1           0       -0.845800    1.488422    0.000000
 ---------------------------------------------------------------------

 SCF Done:  E(RHF) =  -152.106772732     A.U. after   10 cycles
 E2 =    -0.5263805582D+00 EUMP2 =    -0.15263315328977D+03
 CCSD(T)
 CCSD(T)= -0.15266034748D+03

 The electronic state is 1-A'.
 Alpha  occ. eigenvalues --  -20.55341 -20.54283  -1.32617  -1.31558  -0.70033
 Alpha  occ. eigenvalues --   -0.68936  -0.56022  -0.54937  -0.49727  -0.48674
 Alpha virt. eigenvalues --    0.13498   0.16111   0.20136   0.22165   0.53688
 Alpha virt. eigenvalues --    0.54690   0.57424   0.58502   0.64487   0.75940
 Alpha virt. eigenvalues --    0.78741   0.78892   0.80541   0.80579   0.84903

 Mulliken charges:
               1
     1  O   -0.497743
     2  H    0.245348
     3  H    0.254420
     4  O   -0.501182
     5  H    0.242463
     6  H    0.256693
 Sum of Mulliken charges =  -0.00000

 Dipole moment (field-independent basis, Debye):
    X=             -1.6625    Y=             -1.0493    Z=              0.0000  Tot=              1.9660
 Quadrupole moment (field-independent basis, Debye-Ang):
   XX=             -9.3561   YY=              0.5486   ZZ=            -14.7139
   XY=             -2.5442   XZ=              0.0000   YZ=              0.0000

 Normal termination of Gaussian 16 at Sat Aug 27 08:07:16 2022.
