 Gaussian 16, Revision A.03,
 Gaussian 16:  ES64L-G16RevA.03 25-Dec-2016

 ------------------
 #p CCSD(T)/cc-pVTZ
 ------------------

 -----------
 H2O_H2O_827
 -----------
 Symbolic Z-matrix:
 Charge =  0 Multiplicity = 1

                         Standard orientation:
 ---------------------------------------------------------------------
 Center     Atomic      Atomic             Coordinates (Angstroms)
 Number     Number       Type             X           Y           Z
 ---------------------------------------------------------------------
      1          8           0        0.007455   -1.241837    0.000000
      2          1           0       -0.792411   -1.812556    0.000000
      3          1           0        0.806731   -1.813382    0.000000
      4          8           0        0.007455    1.242807    0.000000
      5          1           0        0.725984    1.913047    0.000000
      6          1           0       -0.859585    1.705135    0.000000
 ---------------------------------------------------------------------

 SCF Done:  E(RHF) =  -152.091645849     A.U. after   11 cycles
 E2 =    -0.5293029739D+00 EUMP2 =    -0.15262094882282D+03
 CCSD(T)
 CCSD(T)= -0.15264824620D+03

 The electronic state is 1-A'.
 Alpha  occ. eigenvalues --  -20.53049 -20.53021  -1.31020  -1.30093  -0.68293
 Alpha  occ. eigenvalues --   -0.67673  -0.57070  -0.49906  -0.48318  -0.46841
 Alpha virt. eigenvalues --    0.14506   0.17526   0.20573   0.22354   0.50430
 Alpha virt. eigenvalues --    0.58829   0.58906   0.63224   0.73082   0.76682
 Alpha virt. eigenvalues --    0.77024   0.79512   0.84011   0.84789   0.86510

 Mulliken charges:
               1
     1  O   -0.459141
     2  H    0.227696
     3  H    0.231234
     4  O   -0.457729
     5  H    0.226656
     6  H    0.231283
 Sum of Mulliken charges =  -0.00000

 Dipole moment (field-independent basis, Debye):
    X=             -0.2333    Y=             -0.0188    Z=              0.0000  Tot=              0.2341
 Quadrupole moment (field-independent basis, Debye-Ang):
   XX=             -8.0195   YY=             -2.9324   ZZ=            -14.7257
   XY=             -0.1058   XZ=              0.0000   YZ=              0.0000

 Normal termination of Gaussian 16 at Fri Aug 26 20:22:14 2022.
