 Gaussian 16, Revision A.03,
 Gaussian 16:  ES64L-G16RevA.03 25-Dec-2016

 ------------------
 #p CCSD(T)/cc-pVTZ
 ------------------

 ------------
 H2O_H2O_1004
 ------------
 Symbolic Z-matrix:
 Charge =  0 Multiplicity = 1

                         Standard orientation:
 ---------------------------------------------------------------------
 Center     Atomic      Atomic             Coordinates (Angstroms)
 Number     Number       Type             X           Y           Z
 ---------------------------------------------------------------------
      1          8           0        0.014784   -1.333337    0.000000
      2          1           0       -0.785331   -1.903706    0.000000
      3          1           0        0.813810   -1.905230    0.000000
      4          8           0        0.014784    1.337201    0.000000
      5          1           0        0.640014    2.095220    0.000000
      6          1           0       -0.905034    1.682803    0.000000
 ---------------------------------------------------------------------

 SCF Done:  E(RHF) =  -152.097065453     A.U. after   11 cycles
 E2 =    -0.5283694814D+00 EUMP2 =    -0.15262543493394D+03
 CCSD(T)
 CCSD(T)= -0.15265274592D+03

 The electronic state is 1-A'.
 Alpha  occ. eigenvalues --  -20.53470 -20.53364  -1.31105  -1.30524  -0.68459
 Alpha  occ. eigenvalues --   -0.68043  -0.56332  -0.51377  -0.48366  -0.47369
 Alpha virt. eigenvalues --    0.14428   0.17195   0.20548   0.22224   0.51031
 Alpha virt. eigenvalues --    0.58615   0.58809   0.61760   0.71556   0.76558
 Alpha virt. eigenvalues --    0.76846   0.78683   0.80824   0.83609   0.86313

 Mulliken charges:
               1
     1  O   -0.465731
     2  H    0.229512
     3  H    0.235839
     4  O   -0.461959
     5  H    0.227866
     6  H    0.234473
 Sum of Mulliken charges =  -0.00000

 Dipole moment (field-independent basis, Debye):
    X=             -0.4716    Y=             -0.0739    Z=              0.0000  Tot=              0.4773
 Quadrupole moment (field-independent basis, Debye-Ang):
   XX=             -8.0791   YY=             -2.0290   ZZ=            -14.7178
   XY=             -0.2626   XZ=              0.0000   YZ=              0.0000

 Normal termination of Gaussian 16 at Sat Aug 27 01:18:28 2022.
