 Gaussian 16, Revision A.03,
 Gaussian 16:  ES64L-G16RevA.03 25-Dec-2016

 ------------------
 #p CCSD(T)/cc-pVTZ
 ------------------

 ------------
 H2O_H2O_2670
 ------------
 Symbolic Z-matrix:
 Charge =  0 Multiplicity = 1

                         Standard orientation:
 ---------------------------------------------------------------------
 Center     Atomic      Atomic             Coordinates (Angstroms)
 Number     Number       Type             X           Y           Z
 ---------------------------------------------------------------------
      1          8           0        0.055258   -2.167114    0.000000
      2          1           0       -0.745539   -2.736526    0.000000
      3          1           0        0.853599   -2.739963    0.000000
      4          8           0        0.055258    2.251539    0.000000
      5          1           0       -0.287490    3.172424    0.000000
      6          1           0       -0.704698    1.628664    0.000000
 ---------------------------------------------------------------------

 SCF Done:  E(RHF) =  -152.107707748     A.U. after   10 cycles
 E2 =    -0.5260291554D+00 EUMP2 =    -0.15263373690343D+03
 CCSD(T)
 CCSD(T)= -0.15266093235D+03

 The electronic state is 1-A'.
 Alpha  occ. eigenvalues --  -20.55705 -20.54605  -1.32992  -1.31899  -0.70400
 Alpha  occ. eigenvalues --   -0.69280  -0.56440  -0.55346  -0.50106  -0.49018
 Alpha virt. eigenvalues --    0.13320   0.15561   0.20011   0.21694   0.54041
 Alpha virt. eigenvalues --    0.54748   0.57132   0.58135   0.66310   0.72150
 Alpha virt. eigenvalues --    0.78774   0.79686   0.79849   0.81205   0.82588

 Mulliken charges:
               1
     1  O   -0.507508
     2  H    0.251040
     3  H    0.257526
     4  O   -0.509069
     5  H    0.248013
     6  H    0.259999
 Sum of Mulliken charges =  -0.00000

 Dipole moment (field-independent basis, Debye):
    X=             -1.8794    Y=             -1.5200    Z=              0.0000  Tot=              2.4171
 Quadrupole moment (field-independent basis, Debye-Ang):
   XX=             -9.7227   YY=              0.9001   ZZ=            -14.7142
   XY=             -3.9551   XZ=              0.0000   YZ=              0.0000

 Normal termination of Gaussian 16 at Fri Aug 26 14:54:43 2022.
