 Gaussian 16, Revision A.03,
 Gaussian 16:  ES64L-G16RevA.03 25-Dec-2016

 ------------------
 #p CCSD(T)/cc-pVTZ
 ------------------

 ------------
 H2O_H2O_3205
 ------------
 Symbolic Z-matrix:
 Charge =  0 Multiplicity = 1

                         Standard orientation:
 ---------------------------------------------------------------------
 Center     Atomic      Atomic             Coordinates (Angstroms)
 Number     Number       Type             X           Y           Z
 ---------------------------------------------------------------------
      1          8           0        0.018360   -2.502196    0.000000
      2          1           0       -0.781571   -3.072823    0.000000
      3          1           0        0.817571   -3.073832    0.000000
      4          8           0        0.018360    2.508234    0.000000
      5          1           0        0.592418    3.305707    0.000000
      6          1           0       -0.922182    2.792636    0.000000
 ---------------------------------------------------------------------

 SCF Done:  E(RHF) =  -152.106252712     A.U. after   10 cycles
 E2 =    -0.5260146871D+00 EUMP2 =    -0.15263226739914D+03
 CCSD(T)
 CCSD(T)= -0.15265950994D+03

 The electronic state is 1-A'.
 Alpha  occ. eigenvalues --  -20.54975 -20.54919  -1.32268  -1.32212  -0.69678
 Alpha  occ. eigenvalues --   -0.69620  -0.55662  -0.55601  -0.49371  -0.49315
 Alpha virt. eigenvalues --    0.14411   0.14849   0.20566   0.20734   0.54809
 Alpha virt. eigenvalues --    0.55035   0.57697   0.57787   0.67523   0.69779
 Alpha virt. eigenvalues --    0.79499   0.79566   0.80928   0.81054   0.82717

 Mulliken charges:
               1
     1  O   -0.502076
     2  H    0.250241
     3  H    0.251838
     4  O   -0.501966
     5  H    0.249925
     6  H    0.252037
 Sum of Mulliken charges =  -0.00000

 Dipole moment (field-independent basis, Debye):
    X=             -0.6274    Y=             -0.1065    Z=              0.0000  Tot=              0.6364
 Quadrupole moment (field-independent basis, Debye-Ang):
   XX=             -8.0249   YY=              7.6528   ZZ=            -14.7100
   XY=             -1.0450   XZ=              0.0000   YZ=              0.0000

 Normal termination of Gaussian 16 at Fri Aug 26 20:21:34 2022.
