 Gaussian 16, Revision A.03,
 Gaussian 16:  ES64L-G16RevA.03 25-Dec-2016

 ------------------
 #p CCSD(T)/cc-pVTZ
 ------------------

 ----------
 H2O_H2O_60
 ----------
 Symbolic Z-matrix:
 Charge =  0 Multiplicity = 1

                         Standard orientation:
 ---------------------------------------------------------------------
 Center     Atomic      Atomic             Coordinates (Angstroms)
 Number     Number       Type             X           Y           Z
 ---------------------------------------------------------------------
      1          8           0        0.034811   -0.817503    0.000000
      2          1           0       -0.766817   -1.385745    0.000000
      3          1           0        0.832315   -1.391518    0.000000
      4          8           0        0.034811    0.840857    0.000000
      5          1           0        0.324861    1.779674    0.000000
      6          1           0       -0.947330    0.810763    0.000000
 ---------------------------------------------------------------------

 SCF Done:  E(RHF) =  -151.946398327     A.U. after   12 cycles
 E2 =    -0.5483982205D+00 EUMP2 =    -0.15249479654754D+03
 CCSD(T)
 CCSD(T)= -0.15251976576D+03

 The electronic state is 1-A'.
 Alpha  occ. eigenvalues --  -20.52212 -20.51469  -1.37020  -1.26858  -0.72736
 Alpha  occ. eigenvalues --   -0.69236  -0.61483  -0.52940  -0.43377  -0.36103
 Alpha virt. eigenvalues --    0.14145   0.19131   0.19825   0.23570   0.53670
 Alpha virt. eigenvalues --    0.55687   0.58703   0.65577   0.72212   0.78039
 Alpha virt. eigenvalues --    0.79814   0.82599   0.82889   0.84555   0.88960

 Mulliken charges:
               1
     1  O   -0.353756
     2  H    0.165599
     3  H    0.190993
     4  O   -0.337508
     5  H    0.108709
     6  H    0.225964
 Sum of Mulliken charges =  -0.00000

 Dipole moment (field-independent basis, Debye):
    X=             -0.9498    Y=             -0.5797    Z=              0.0000  Tot=              1.1127
 Quadrupole moment (field-independent basis, Debye-Ang):
   XX=             -8.9715   YY=             -8.7168   ZZ=            -14.6965
   XY=             -0.4771   XZ=              0.0000   YZ=              0.0000

 Normal termination of Gaussian 16 at Fri Aug 26 12:21:56 2022.
