 Gaussian 16, Revision A.03,
 Gaussian 16:  ES64L-G16RevA.03 25-Dec-2016

 ------------------
 #p CCSD(T)/cc-pVTZ
 ------------------

 ------------
 H2O_H2O_1408
 ------------
 Symbolic Z-matrix:
 Charge =  0 Multiplicity = 1

                         Standard orientation:
 ---------------------------------------------------------------------
 Center     Atomic      Atomic             Coordinates (Angstroms)
 Number     Number       Type             X           Y           Z
 ---------------------------------------------------------------------
      1          8           0        0.028569   -1.539907    0.000000
      2          1           0       -0.771909   -2.109768    0.000000
      3          1           0        0.827231   -2.112308    0.000000
      4          8           0        0.028569    1.555119    0.000000
      5          1           0        0.436873    2.448873    0.000000
      6          1           0       -0.949294    1.651502    0.000000
 ---------------------------------------------------------------------

 SCF Done:  E(RHF) =  -152.102944372     A.U. after   11 cycles
 E2 =    -0.5272061573D+00 EUMP2 =    -0.15263015052973D+03
 CCSD(T)
 CCSD(T)= -0.15265741256D+03

 The electronic state is 1-A'.
 Alpha  occ. eigenvalues --  -20.54264 -20.53900  -1.31582  -1.31157  -0.69006
 Alpha  occ. eigenvalues --   -0.68582  -0.55604  -0.53549  -0.48731  -0.48185
 Alpha virt. eigenvalues --    0.14166   0.16608   0.20460   0.21998   0.52606
 Alpha virt. eigenvalues --    0.57975   0.58173   0.58868   0.65321   0.76808
 Alpha virt. eigenvalues --    0.77861   0.78829   0.78987   0.82354   0.85817

 Mulliken charges:
               1
     1  O   -0.478587
     2  H    0.235294
     3  H    0.243920
     4  O   -0.476089
     5  H    0.232787
     6  H    0.242675
 Sum of Mulliken charges =  -0.00000

 Dipole moment (field-independent basis, Debye):
    X=             -0.9377    Y=             -0.2871    Z=              0.0000  Tot=              0.9806
 Quadrupole moment (field-independent basis, Debye-Ang):
   XX=             -8.3872   YY=             -0.3127   ZZ=            -14.7114
   XY=             -0.7969   XZ=              0.0000   YZ=              0.0000

 Normal termination of Gaussian 16 at Sat Aug 27 04:34:26 2022.
