 Gaussian 16, Revision A.03,
 Gaussian 16:  ES64L-G16RevA.03 25-Dec-2016

 ------------------
 #p CCSD(T)/cc-pVTZ
 ------------------

 ------------
 H2O_H2O_2600
 ------------
 Symbolic Z-matrix:
 Charge =  0 Multiplicity = 1

                         Standard orientation:
 ---------------------------------------------------------------------
 Center     Atomic      Atomic             Coordinates (Angstroms)
 Number     Number       Type             X           Y           Z
 ---------------------------------------------------------------------
      1          8           0        0.000000   -0.000000    2.186374
      2          1           0        0.000000    0.799571    2.757506
      3          1           0       -0.000000   -0.799571    2.757506
      4          8           0        0.000000   -0.000000   -2.186374
      5          1           0       -0.000000   -0.799571   -2.757506
      6          1           0        0.000000    0.799571   -2.757506
 ---------------------------------------------------------------------

 SCF Done:  E(RHF) =  -152.105576885     A.U. after   10 cycles
 E2 =    -0.5261438076D+00 EUMP2 =    -0.15263172069239D+03
 CCSD(T)
 CCSD(T)= -0.15265897095D+03

 The electronic state is 1-AG.
 Alpha  occ. eigenvalues --  -20.54717 -20.54717  -1.32008  -1.32003  -0.69422
 Alpha  occ. eigenvalues --   -0.69416  -0.55436  -0.55278  -0.49114  -0.49096
 Alpha virt. eigenvalues --    0.14315   0.15277   0.20637   0.20932   0.54731
 Alpha virt. eigenvalues --    0.55588   0.57837   0.57994   0.64768   0.72714
 Alpha virt. eigenvalues --    0.79625   0.79907   0.81173   0.81300   0.81999

 Mulliken charges:
               1
     1  O   -0.497824
     2  H    0.248912
     3  H    0.248912
     4  O   -0.497824
     5  H    0.248912
     6  H    0.248912
 Sum of Mulliken charges =   0.00000

 Dipole moment (field-independent basis, Debye):
    X=             -0.0000    Y=              0.0000    Z=              0.0000  Tot=              0.0000
 Quadrupole moment (field-independent basis, Debye-Ang):
   XX=            -14.7095   YY=             -7.8258   ZZ=              5.3846
   XY=              0.0000   XZ=              0.0000   YZ=             -0.0000

 7\MP4DQ=-152.6408245\MP4SDQ=-152.6438988\CCSD=-152.6433045\CCSD(T)=-15
 Normal termination of Gaussian 16 at Fri Aug 26 14:13:38 2022.
