 Gaussian 16, Revision A.03,
 Gaussian 16:  ES64L-G16RevA.03 25-Dec-2016

 ------------------
 #p CCSD(T)/cc-pVTZ
 ------------------

 ------------
 H2O_H2O_3134
 ------------
 Symbolic Z-matrix:
 Charge =  0 Multiplicity = 1

                         Standard orientation:
 ---------------------------------------------------------------------
 Center     Atomic      Atomic             Coordinates (Angstroms)
 Number     Number       Type             X           Y           Z
 ---------------------------------------------------------------------
      1          8           0        0.031741   -2.455170    0.000000
      2          1           0       -0.768462   -3.025416    0.000000
      3          1           0        0.830679   -3.027188    0.000000
      4          8           0        0.031741    2.474351    0.000000
      5          1           0        0.380274    3.393062    0.000000
      6          1           0       -0.950347    2.506100    0.000000
 ---------------------------------------------------------------------

 SCF Done:  E(RHF) =  -152.106408287     A.U. after   10 cycles
 E2 =    -0.5260092177D+00 EUMP2 =    -0.15263241750425D+03
 CCSD(T)
 CCSD(T)= -0.15265965603D+03

 The electronic state is 1-A'.
 Alpha  occ. eigenvalues --  -20.55070 -20.54886  -1.32364  -1.32178  -0.69774
 Alpha  occ. eigenvalues --   -0.69581  -0.55763  -0.55577  -0.49468  -0.49283
 Alpha virt. eigenvalues --    0.14286   0.14923   0.20483   0.20807   0.54696
 Alpha virt. eigenvalues --    0.55055   0.57619   0.57820   0.67291   0.69989
 Alpha virt. eigenvalues --    0.79405   0.79593   0.80819   0.81108   0.82716

 Mulliken charges:
               1
     1  O   -0.502994
     2  H    0.250055
     3  H    0.252955
     4  O   -0.502686
     5  H    0.249317
     6  H    0.253353
 Sum of Mulliken charges =   0.00000

 Dipole moment (field-independent basis, Debye):
    X=             -1.0842    Y=             -0.3388    Z=              0.0000  Tot=              1.1359
 Quadrupole moment (field-independent basis, Debye-Ang):
   XX=             -8.4443   YY=              6.6071   ZZ=            -14.7104
   XY=             -1.8945   XZ=              0.0000   YZ=              0.0000

 Normal termination of Gaussian 16 at Fri Aug 26 19:42:41 2022.
