 Gaussian 16, Revision A.03,
 Gaussian 16:  ES64L-G16RevA.03 25-Dec-2016

 ------------------
 #p CCSD(T)/cc-pVTZ
 ------------------

 -----------
 H2O_H2O_154
 -----------
 Symbolic Z-matrix:
 Charge =  0 Multiplicity = 1

                         Standard orientation:
 ---------------------------------------------------------------------
 Center     Atomic      Atomic             Coordinates (Angstroms)
 Number     Number       Type             X           Y           Z
 ---------------------------------------------------------------------
      1          8           0        0.014785   -0.881283    0.000000
      2          1           0       -0.785608   -1.451262    0.000000
      3          1           0        0.813532   -1.453566    0.000000
      4          8           0        0.014785    0.885133    0.000000
      5          1           0        0.640384    1.642847    0.000000
      6          1           0       -0.904865    1.231184    0.000000
 ---------------------------------------------------------------------

 SCF Done:  E(RHF) =  -151.987501397     A.U. after   11 cycles
 E2 =    -0.5432515125D+00 EUMP2 =    -0.15253075290967D+03
 CCSD(T)
 CCSD(T)= -0.15255650298D+03

 The electronic state is 1-A'.
 Alpha  occ. eigenvalues --  -20.51353 -20.51242  -1.34210  -1.27409  -0.69803
 Alpha  occ. eigenvalues --   -0.66632  -0.63983  -0.50941  -0.43700  -0.37702
 Alpha virt. eigenvalues --    0.14571   0.19099   0.20114   0.23110   0.51052
 Alpha virt. eigenvalues --    0.58613   0.59135   0.66601   0.68746   0.79011
 Alpha virt. eigenvalues --    0.80078   0.83764   0.84131   0.86225   0.87946

 Mulliken charges:
               1
     1  O   -0.389887
     2  H    0.188368
     3  H    0.201243
     4  O   -0.378030
     5  H    0.164842
     6  H    0.213463
 Sum of Mulliken charges =  -0.00000

 Dipole moment (field-independent basis, Debye):
    X=             -0.4202    Y=             -0.0951    Z=              0.0000  Tot=              0.4309
 Quadrupole moment (field-independent basis, Debye-Ang):
   XX=             -8.4449   YY=             -7.6440   ZZ=            -14.7540
   XY=             -0.1650   XZ=              0.0000   YZ=              0.0000

 Normal termination of Gaussian 16 at Fri Aug 26 13:24:46 2022.
