 Gaussian 16, Revision A.03,
 Gaussian 16:  ES64L-G16RevA.03 25-Dec-2016

 ------------------
 #p CCSD(T)/cc-pVTZ
 ------------------

 ------------
 H2O_H2O_3629
 ------------
 Symbolic Z-matrix:
 Charge =  0 Multiplicity = 1

                         Standard orientation:
 ---------------------------------------------------------------------
 Center     Atomic      Atomic             Coordinates (Angstroms)
 Number     Number       Type             X           Y           Z
 ---------------------------------------------------------------------
      1          8           0        0.014783   -2.729400    0.000000
      2          1           0       -0.785054   -3.300159    0.000000
      3          1           0        0.814088   -3.300904    0.000000
      4          8           0        0.014783    2.733278    0.000000
      5          1           0        0.639643    3.491602    0.000000
      6          1           0       -0.905203    3.078433    0.000000
 ---------------------------------------------------------------------

 SCF Done:  E(RHF) =  -152.106498184     A.U. after   10 cycles
 E2 =    -0.5259743492D+00 EUMP2 =    -0.15263247253316D+03
 CCSD(T)
 CCSD(T)= -0.15265971110D+03

 The electronic state is 1-A'.
 Alpha  occ. eigenvalues --  -20.55062 -20.55032  -1.32356  -1.32326  -0.69765
 Alpha  occ. eigenvalues --   -0.69734  -0.55761  -0.55730  -0.49461  -0.49431
 Alpha virt. eigenvalues --    0.14460   0.14647   0.20544   0.20622   0.54785
 Alpha virt. eigenvalues --    0.54862   0.57639   0.57684   0.68157   0.68879
 Alpha virt. eigenvalues --    0.79416   0.79446   0.80858   0.80908   0.82774

 Mulliken charges:
               1
     1  O   -0.503512
     2  H    0.251251
     3  H    0.252261
     4  O   -0.503464
     5  H    0.251048
     6  H    0.252416
 Sum of Mulliken charges =  -0.00000

 Dipole moment (field-independent basis, Debye):
    X=             -0.5064    Y=             -0.0681    Z=              0.0000  Tot=              0.5110
 Quadrupole moment (field-independent basis, Debye-Ang):
   XX=             -7.9461   YY=              9.5658   ZZ=            -14.7103
   XY=             -0.9443   XZ=              0.0000   YZ=              0.0000

 Normal termination of Gaussian 16 at Sat Aug 27 02:03:20 2022.
