 Gaussian 16, Revision A.03,
 Gaussian 16:  ES64L-G16RevA.03 25-Dec-2016

 ------------------
 #p CCSD(T)/cc-pVTZ
 ------------------

 ------------
 H2O_H2O_2380
 ------------
 Symbolic Z-matrix:
 Charge =  0 Multiplicity = 1

                         Standard orientation:
 ---------------------------------------------------------------------
 Center     Atomic      Atomic             Coordinates (Angstroms)
 Number     Number       Type             X           Y           Z
 ---------------------------------------------------------------------
      1          8           0        0.018361   -2.063433    0.000000
      2          1           0       -0.781647   -2.633953    0.000000
      3          1           0        0.817495   -2.635177    0.000000
      4          8           0        0.018361    2.069467    0.000000
      5          1           0        0.592525    2.866864    0.000000
      6          1           0       -0.922144    2.353994    0.000000
 ---------------------------------------------------------------------

 SCF Done:  E(RHF) =  -152.105445428     A.U. after   10 cycles
 E2 =    -0.5262213610D+00 EUMP2 =    -0.15263166678912D+03
 CCSD(T)
 CCSD(T)= -0.15265891307D+03

 The electronic state is 1-A'.
 Alpha  occ. eigenvalues --  -20.54696 -20.54612  -1.31982  -1.31896  -0.69398
 Alpha  occ. eigenvalues --   -0.69308  -0.55417  -0.55141  -0.49084  -0.48993
 Alpha virt. eigenvalues --    0.14180   0.15503   0.20590   0.21077   0.54395
 Alpha virt. eigenvalues --    0.55815   0.57851   0.58085   0.63462   0.73975
 Alpha virt. eigenvalues --    0.79553   0.80103   0.80891   0.81260   0.82071

 Mulliken charges:
               1
     1  O   -0.496457
     2  H    0.246919
     3  H    0.249596
     4  O   -0.496273
     5  H    0.246460
     6  H    0.249755
 Sum of Mulliken charges =  -0.00000

 Dipole moment (field-independent basis, Debye):
    X=             -0.6218    Y=             -0.1087    Z=              0.0000  Tot=              0.6313
 Quadrupole moment (field-independent basis, Debye-Ang):
   XX=             -8.0407   YY=              4.1739   ZZ=            -14.7097
   XY=             -0.7745   XZ=              0.0000   YZ=              0.0000

 Normal termination of Gaussian 16 at Sat Aug 27 10:14:24 2022.
