 Gaussian 16, Revision A.03,
 Gaussian 16:  ES64L-G16RevA.03 25-Dec-2016

 ------------------
 #p CCSD(T)/cc-pVTZ
 ------------------

 ------------
 H2O_H2O_3340
 ------------
 Symbolic Z-matrix:
 Charge =  0 Multiplicity = 1

                         Standard orientation:
 ---------------------------------------------------------------------
 Center     Atomic      Atomic             Coordinates (Angstroms)
 Number     Number       Type             X           Y           Z
 ---------------------------------------------------------------------
      1          8           0        0.047528   -2.544466    0.000000
      2          1           0       -0.752950   -3.114325    0.000000
      3          1           0        0.846190   -3.116869    0.000000
      4          8           0        0.047528    2.595080    0.000000
      5          1           0        0.018430    3.577251    0.000000
      6          1           0       -0.872120    2.249028    0.000000
 ---------------------------------------------------------------------

 SCF Done:  E(RHF) =  -152.106999204     A.U. after   10 cycles
 E2 =    -0.5259519206D+00 EUMP2 =    -0.15263295112476D+03
 CCSD(T)
 CCSD(T)= -0.15266017712D+03

 The electronic state is 1-A'.
 Alpha  occ. eigenvalues --  -20.55372 -20.54918  -1.32668  -1.32211  -0.70076
 Alpha  occ. eigenvalues --   -0.69608  -0.56096  -0.55639  -0.49777  -0.49322
 Alpha virt. eigenvalues --    0.14057   0.14890   0.20279   0.20871   0.54436
 Alpha virt. eigenvalues --    0.54960   0.57371   0.57806   0.67468   0.69394
 Alpha virt. eigenvalues --    0.79104   0.79548   0.80495   0.80956   0.82696

 Mulliken charges:
               1
     1  O   -0.506446
     2  H    0.251314
     3  H    0.255177
     4  O   -0.506014
     5  H    0.249849
     6  H    0.256120
 Sum of Mulliken charges =  -0.00000

 Dipole moment (field-independent basis, Debye):
    X=             -1.6262    Y=             -0.8932    Z=              0.0000  Tot=              1.8554
 Quadrupole moment (field-independent basis, Debye-Ang):
   XX=             -9.2256   YY=              5.3084   ZZ=            -14.7115
   XY=             -3.4754   XZ=              0.0000   YZ=              0.0000

 Normal termination of Gaussian 16 at Fri Aug 26 21:30:36 2022.
