 Gaussian 16, Revision A.03,
 Gaussian 16:  ES64L-G16RevA.03 25-Dec-2016

 ------------------
 #p CCSD(T)/cc-pVTZ
 ------------------

 ------------
 H2O_H2O_2707
 ------------
 Symbolic Z-matrix:
 Charge =  0 Multiplicity = 1

                         Standard orientation:
 ---------------------------------------------------------------------
 Center     Atomic      Atomic             Coordinates (Angstroms)
 Number     Number       Type             X           Y           Z
 ---------------------------------------------------------------------
      1          8           0        0.025266   -2.233186    0.000000
      2          1           0       -0.774859   -2.803541    0.000000
      3          1           0        0.824282   -2.805094    0.000000
      4          8           0        0.025266    2.244916    0.000000
      5          1           0        0.490615    3.110339    0.000000
      6          1           0       -0.944298    2.404449    0.000000
 ---------------------------------------------------------------------

 SCF Done:  E(RHF) =  -152.105938970     A.U. after   10 cycles
 E2 =    -0.5260985705D+00 EUMP2 =    -0.15263203754064D+03
 CCSD(T)
 CCSD(T)= -0.15265928147D+03

 The electronic state is 1-A'.
 Alpha  occ. eigenvalues --  -20.54882 -20.54744  -1.32172  -1.32033  -0.69584
 Alpha  occ. eigenvalues --   -0.69439  -0.55562  -0.55387  -0.49274  -0.49135
 Alpha virt. eigenvalues --    0.14221   0.15224   0.20544   0.20947   0.54617
 Alpha virt. eigenvalues --    0.55363   0.57749   0.57947   0.65603   0.72043
 Alpha virt. eigenvalues --    0.79544   0.79792   0.80995   0.81215   0.82379

 Mulliken charges:
               1
     1  O   -0.500041
     2  H    0.248546
     3  H    0.251536
     4  O   -0.499742
     5  H    0.247916
     6  H    0.251785
 Sum of Mulliken charges =  -0.00000

 Dipole moment (field-independent basis, Debye):
    X=             -0.8596    Y=             -0.2090    Z=              0.0000  Tot=              0.8846
 Quadrupole moment (field-independent basis, Debye-Ang):
   XX=             -8.2201   YY=              5.2859   ZZ=            -14.7100
   XY=             -1.2570   XZ=              0.0000   YZ=              0.0000

 Normal termination of Gaussian 16 at Fri Aug 26 15:18:03 2022.
