 Gaussian 16, Revision A.03,
 Gaussian 16:  ES64L-G16RevA.03 25-Dec-2016

 ------------------
 #p CCSD(T)/cc-pVTZ
 ------------------

 ------------
 H2O_H2O_3127
 ------------
 Symbolic Z-matrix:
 Charge =  0 Multiplicity = 1

                         Standard orientation:
 ---------------------------------------------------------------------
 Center     Atomic      Atomic             Coordinates (Angstroms)
 Number     Number       Type             X           Y           Z
 ---------------------------------------------------------------------
      1          8           0        0.007455   -2.465059    0.000000
      2          1           0       -0.792265   -3.035983    0.000000
      3          1           0        0.806877   -3.036399    0.000000
      4          8           0        0.007455    2.466032    0.000000
      5          1           0        0.725812    3.136456    0.000000
      6          1           0       -0.859704    2.928139    0.000000
 ---------------------------------------------------------------------

 SCF Done:  E(RHF) =  -152.106115733     A.U. after   10 cycles
 E2 =    -0.5260305873D+00 EUMP2 =    -0.15263214632015D+03
 CCSD(T)
 CCSD(T)= -0.15265939147D+03

 The electronic state is 1-A'.
 Alpha  occ. eigenvalues --  -20.54910 -20.54900  -1.32202  -1.32193  -0.69613
 Alpha  occ. eigenvalues --   -0.69603  -0.55600  -0.55564  -0.49305  -0.49295
 Alpha virt. eigenvalues --    0.14436   0.14887   0.20600   0.20745   0.54845
 Alpha virt. eigenvalues --    0.55087   0.57738   0.57808   0.67337   0.70058
 Alpha virt. eigenvalues --    0.79550   0.79601   0.80984   0.81083   0.82671

 Mulliken charges:
               1
     1  O   -0.501261
     2  H    0.250293
     3  H    0.250969
     4  O   -0.501241
     5  H    0.250185
     6  H    0.251055
 Sum of Mulliken charges =  -0.00000

 Dipole moment (field-independent basis, Debye):
    X=             -0.2546    Y=             -0.0172    Z=              0.0000  Tot=              0.2552
 Quadrupole moment (field-independent basis, Debye-Ang):
   XX=             -7.8502   YY=              7.6057   ZZ=            -14.7098
   XY=             -0.4025   XZ=              0.0000   YZ=              0.0000

 Normal termination of Gaussian 16 at Fri Aug 26 19:39:22 2022.
