 Gaussian 16, Revision A.03,
 Gaussian 16:  ES64L-G16RevA.03 25-Dec-2016

 ------------------
 #p CCSD(T)/cc-pVTZ
 ------------------

 ----------
 H2O_H2O_69
 ----------
 Symbolic Z-matrix:
 Charge =  0 Multiplicity = 1

                         Standard orientation:
 ---------------------------------------------------------------------
 Center     Atomic      Atomic             Coordinates (Angstroms)
 Number     Number       Type             X           Y           Z
 ---------------------------------------------------------------------
      1          8           0        0.054300   -0.788418    0.000000
      2          1           0       -0.748474   -1.355039    0.000000
      3          1           0        0.850642   -1.364043    0.000000
      4          8           0        0.054300    0.865317    0.000000
      5          1           0       -0.224208    1.807623    0.000000
      6          1           0       -0.746753    0.296264    0.000000
 ---------------------------------------------------------------------

 SCF Done:  E(RHF) =  -151.917451961     A.U. after   12 cycles
 E2 =    -0.5508203247D+00 EUMP2 =    -0.15246827228595D+03
 CCSD(T)
 CCSD(T)= -0.15249296775D+03

 The electronic state is 1-A'.
 Alpha  occ. eigenvalues --  -20.54857 -20.49564  -1.40929  -1.26056  -0.77706
 Alpha  occ. eigenvalues --   -0.72199  -0.55058  -0.53358  -0.43088  -0.40401
 Alpha virt. eigenvalues --    0.13329   0.18667   0.20080   0.25075   0.50452
 Alpha virt. eigenvalues --    0.54843   0.61147   0.67871   0.73198   0.76633
 Alpha virt. eigenvalues --    0.78344   0.80760   0.84118   0.84716   0.88949

 Mulliken charges:
               1
     1  O   -0.295956
     2  H    0.147167
     3  H    0.199045
     4  O   -0.411869
     5  H    0.108645
     6  H    0.252969
 Sum of Mulliken charges =  -0.00000

 Dipole moment (field-independent basis, Debye):
    X=             -1.3964    Y=             -1.8523    Z=              0.0000  Tot=              2.3197
 Quadrupole moment (field-independent basis, Debye-Ang):
   XX=             -9.7759   YY=             -8.9573   ZZ=            -14.5651
   XY=             -1.1708   XZ=              0.0000   YZ=              0.0000

 Normal termination of Gaussian 16 at Fri Aug 26 12:27:13 2022.
