 Gaussian 16, Revision A.03,
 Gaussian 16:  ES64L-G16RevA.03 25-Dec-2016

 ------------------
 #p CCSD(T)/cc-pVTZ
 ------------------

 -----------
 H2O_H2O_362
 -----------
 Symbolic Z-matrix:
 Charge =  0 Multiplicity = 1

                         Standard orientation:
 ---------------------------------------------------------------------
 Center     Atomic      Atomic             Coordinates (Angstroms)
 Number     Number       Type             X           Y           Z
 ---------------------------------------------------------------------
      1          8           0        0.040444   -0.971722    0.000000
      2          1           0       -0.761131   -1.540038    0.000000
      3          1           0        0.838001   -1.545663    0.000000
      4          8           0        0.040444    1.004894    0.000000
      5          1           0        0.205383    1.973553    0.000000
      6          1           0       -0.929352    0.846773    0.000000
 ---------------------------------------------------------------------

 SCF Done:  E(RHF) =  -152.052277329     A.U. after   11 cycles
 E2 =    -0.5357944042D+00 EUMP2 =    -0.15258807173312D+03
 CCSD(T)
 CCSD(T)= -0.15261481426D+03

 The electronic state is 1-A'.
 Alpha  occ. eigenvalues --  -20.53010 -20.51833  -1.33098  -1.28511  -0.70110
 Alpha  occ. eigenvalues --   -0.67751  -0.58727  -0.50079  -0.45473  -0.45150
 Alpha virt. eigenvalues --    0.14225   0.18229   0.20097   0.23601   0.53298
 Alpha virt. eigenvalues --    0.57264   0.58438   0.63799   0.71630   0.76716
 Alpha virt. eigenvalues --    0.79834   0.81925   0.83353   0.85326   0.88289

 Mulliken charges:
               1
     1  O   -0.432164
     2  H    0.205440
     3  H    0.225638
     4  O   -0.404766
     5  H    0.170095
     6  H    0.235758
 Sum of Mulliken charges =  -0.00000

 Dipole moment (field-independent basis, Debye):
    X=             -1.1633    Y=             -0.6853    Z=              0.0000  Tot=              1.3502
 Quadrupole moment (field-independent basis, Debye-Ang):
   XX=             -9.0449   YY=             -5.9609   ZZ=            -14.7189
   XY=             -0.6664   XZ=              0.0000   YZ=              0.0000

 Normal termination of Gaussian 16 at Fri Aug 26 15:40:04 2022.
