 Gaussian 16, Revision A.03,
 Gaussian 16:  ES64L-G16RevA.03 25-Dec-2016

 ------------------
 #p CCSD(T)/cc-pVTZ
 ------------------

 ------------
 H2O_H2O_1851
 ------------
 Symbolic Z-matrix:
 Charge =  0 Multiplicity = 1

                         Standard orientation:
 ---------------------------------------------------------------------
 Center     Atomic      Atomic             Coordinates (Angstroms)
 Number     Number       Type             X           Y           Z
 ---------------------------------------------------------------------
      1          8           0        0.003735   -1.787364    0.000000
      2          1           0       -0.795938   -2.358352    0.000000
      3          1           0        0.803204   -2.358640    0.000000
      4          8           0        0.003735    1.787607    0.000000
      5          1           0        0.764353    2.409674    0.000000
      6          1           0       -0.831385    2.305372    0.000000
 ---------------------------------------------------------------------

 SCF Done:  E(RHF) =  -152.104193717     A.U. after   10 cycles
 E2 =    -0.5265965132D+00 EUMP2 =    -0.15263079023030D+03
 CCSD(T)
 CCSD(T)= -0.15265804568D+03

 The electronic state is 1-A'.
 Alpha  occ. eigenvalues --  -20.54328 -20.54324  -1.31629  -1.31581  -0.69050
 Alpha  occ. eigenvalues --   -0.69008  -0.55311  -0.54413  -0.48764  -0.48631
 Alpha virt. eigenvalues --    0.14234   0.16031   0.20615   0.21373   0.53542
 Alpha virt. eigenvalues --    0.57431   0.57987   0.58376   0.60965   0.75785
 Alpha virt. eigenvalues --    0.79122   0.79741   0.80381   0.81091   0.83560

 Mulliken charges:
               1
     1  O   -0.486460
     2  H    0.242845
     3  H    0.243623
     4  O   -0.486458
     5  H    0.242785
     6  H    0.243665
 Sum of Mulliken charges =  -0.00000

 Dipole moment (field-independent basis, Debye):
    X=             -0.1250    Y=             -0.0045    Z=              0.0000  Tot=              0.1251
 Quadrupole moment (field-independent basis, Debye-Ang):
   XX=             -7.8628   YY=              2.0735   ZZ=            -14.7089
   XY=             -0.1162   XZ=              0.0000   YZ=              0.0000

 Normal termination of Gaussian 16 at Sat Aug 27 07:10:16 2022.
