 Gaussian 16, Revision A.03,
 Gaussian 16:  ES64L-G16RevA.03 25-Dec-2016

 ------------------
 #p CCSD(T)/cc-pVTZ
 ------------------

 -----------
 H2O_H2O_686
 -----------
 Symbolic Z-matrix:
 Charge =  0 Multiplicity = 1

                         Standard orientation:
 ---------------------------------------------------------------------
 Center     Atomic      Atomic             Coordinates (Angstroms)
 Number     Number       Type             X           Y           Z
 ---------------------------------------------------------------------
      1          8           0        0.037697   -1.147305    0.000000
      2          1           0       -0.763465   -1.716203    0.000000
      3          1           0        0.835671   -1.720666    0.000000
      4          8           0        0.037697    1.175441    0.000000
      5          1           0        0.264942    2.131405    0.000000
      6          1           0       -0.940296    1.080375    0.000000
 ---------------------------------------------------------------------

 SCF Done:  E(RHF) =  -152.088229289     A.U. after   11 cycles
 E2 =    -0.5305217411D+00 EUMP2 =    -0.15261875103009D+03
 CCSD(T)
 CCSD(T)= -0.15264592891D+03

 The electronic state is 1-A'.
 Alpha  occ. eigenvalues --  -20.53640 -20.52695  -1.31771  -1.29805  -0.69039
 Alpha  occ. eigenvalues --   -0.67677  -0.57340  -0.49745  -0.49012  -0.46584
 Alpha virt. eigenvalues --    0.14225   0.17609   0.20301   0.23157   0.52895
 Alpha virt. eigenvalues --    0.58061   0.58262   0.62051   0.70736   0.76025
 Alpha virt. eigenvalues --    0.77865   0.80547   0.83611   0.85878   0.87499

 Mulliken charges:
               1
     1  O   -0.462888
     2  H    0.222469
     3  H    0.240147
     4  O   -0.442694
     5  H    0.202764
     6  H    0.240202
 Sum of Mulliken charges =  -0.00000

 Dipole moment (field-independent basis, Debye):
    X=             -1.1521    Y=             -0.5548    Z=              0.0000  Tot=              1.2788
 Quadrupole moment (field-independent basis, Debye-Ang):
   XX=             -8.8530   YY=             -3.9701   ZZ=            -14.7283
   XY=             -0.7454   XZ=              0.0000   YZ=              0.0000

 34964\MP4DQ=-152.62704\MP4SDQ=-152.6303408\CCSD=-152.6296619\CCSD(T)=-
 Normal termination of Gaussian 16 at Fri Aug 26 19:04:47 2022.
