 Gaussian 16, Revision A.03,
 Gaussian 16:  ES64L-G16RevA.03 25-Dec-2016

 ------------------
 #p CCSD(T)/cc-pVTZ
 ------------------

 ------------
 H2O_H2O_4309
 ------------
 Symbolic Z-matrix:
 Charge =  0 Multiplicity = 1

                         Standard orientation:
 ---------------------------------------------------------------------
 Center     Atomic      Atomic             Coordinates (Angstroms)
 Number     Number       Type             X           Y           Z
 ---------------------------------------------------------------------
      1          8           0        0.031739   -3.080071    0.000000
      2          1           0       -0.768337   -3.650496    0.000000
      3          1           0        0.830805   -3.651910    0.000000
      4          8           0        0.031739    3.099266    0.000000
      5          1           0        0.380066    4.018055    0.000000
      6          1           0       -0.950357    3.130794    0.000000
 ---------------------------------------------------------------------

 SCF Done:  E(RHF) =  -152.106926241     A.U. after   10 cycles
 E2 =    -0.5259232896D+00 EUMP2 =    -0.15263284953061D+03
 CCSD(T)
 CCSD(T)= -0.15266007980D+03

 The electronic state is 1-A'.
 Alpha  occ. eigenvalues --  -20.55274 -20.55158  -1.32571  -1.32454  -0.69978
 Alpha  occ. eigenvalues --   -0.69858  -0.55996  -0.55879  -0.49679  -0.49562
 Alpha virt. eigenvalues --    0.14355   0.14485   0.20411   0.20535   0.54589
 Alpha virt. eigenvalues --    0.54717   0.57465   0.57583   0.68210   0.68370
 Alpha virt. eigenvalues --    0.79200   0.79315   0.80641   0.80769   0.82570

 Mulliken charges:
               1
     1  O   -0.506033
     2  H    0.252250
     3  H    0.253783
     4  O   -0.505923
     5  H    0.251822
     6  H    0.254101
 Sum of Mulliken charges =  -0.00000

 Dipole moment (field-independent basis, Debye):
    X=             -1.0902    Y=             -0.3353    Z=              0.0000  Tot=              1.1406
 Quadrupole moment (field-independent basis, Debye-Ang):
   XX=             -8.4372   YY=             11.2146   ZZ=            -14.7109
   XY=             -2.5672   XZ=              0.0000   YZ=              0.0000

 Normal termination of Gaussian 16 at Sat Aug 27 06:35:24 2022.
