 Gaussian 16, Revision A.03,
 Gaussian 16:  ES64L-G16RevA.03 25-Dec-2016

 ------------------
 #p CCSD(T)/cc-pVTZ
 ------------------

 ------------
 H2O_H2O_4640
 ------------
 Symbolic Z-matrix:
 Charge =  0 Multiplicity = 1

                         Standard orientation:
 ---------------------------------------------------------------------
 Center     Atomic      Atomic             Coordinates (Angstroms)
 Number     Number       Type             X           Y           Z
 ---------------------------------------------------------------------
      1          8           0        0.047520   -3.235836    0.000000
      2          1           0       -0.752767   -3.805966    0.000000
      3          1           0        0.846374   -3.807970    0.000000
      4          8           0        0.047520    3.286483    0.000000
      5          1           0        0.018090    4.268643    0.000000
      6          1           0       -0.872012    2.940120    0.000000
 ---------------------------------------------------------------------

 SCF Done:  E(RHF) =  -152.107235756     A.U. after   10 cycles
 E2 =    -0.5258926180D+00 EUMP2 =    -0.15263312837436D+03
 CCSD(T)
 CCSD(T)= -0.15266035226D+03

 The electronic state is 1-A'.
 Alpha  occ. eigenvalues --  -20.55471 -20.55196  -1.32769  -1.32493  -0.70175
 Alpha  occ. eigenvalues --   -0.69895  -0.56208  -0.55932  -0.49879  -0.49604
 Alpha virt. eigenvalues --    0.14189   0.14468   0.20257   0.20547   0.54388
 Alpha virt. eigenvalues --    0.54680   0.57292   0.57567   0.67990   0.68279
 Alpha virt. eigenvalues --    0.79000   0.79272   0.80435   0.80730   0.82360

 Mulliken charges:
               1
     1  O   -0.507865
     2  H    0.252962
     3  H    0.254903
     4  O   -0.507688
     5  H    0.252200
     6  H    0.255488
 Sum of Mulliken charges =  -0.00000

 Dipole moment (field-independent basis, Debye):
    X=             -1.6338    Y=             -0.8837    Z=              0.0000  Tot=              1.8575
 Quadrupole moment (field-independent basis, Debye-Ang):
   XX=             -9.2244   YY=              9.6239   ZZ=            -14.7116
   XY=             -4.5933   XZ=              0.0000   YZ=              0.0000

 Normal termination of Gaussian 16 at Sat Aug 27 08:29:27 2022.
