 Gaussian 16, Revision A.03,
 Gaussian 16:  ES64L-G16RevA.03 25-Dec-2016

 ------------------
 #p CCSD(T)/cc-pVTZ
 ------------------

 ------------
 H2O_H2O_3749
 ------------
 Symbolic Z-matrix:
 Charge =  0 Multiplicity = 1

                         Standard orientation:
 ---------------------------------------------------------------------
 Center     Atomic      Atomic             Coordinates (Angstroms)
 Number     Number       Type             X           Y           Z
 ---------------------------------------------------------------------
      1          8           0        0.057214   -2.722765    0.000000
      2          1           0       -0.743366   -3.292482    0.000000
      3          1           0        0.855774   -3.295310    0.000000
      4          8           0        0.057214    2.836789    0.000000
      5          1           0       -0.512503    3.637369    0.000000
      6          1           0       -0.515331    2.038229    0.000000
 ---------------------------------------------------------------------

 SCF Done:  E(RHF) =  -152.107865150     A.U. after   10 cycles
 E2 =    -0.5258638518D+00 EUMP2 =    -0.15263372900206D+03
 CCSD(T)
 CCSD(T)= -0.15266093703D+03

 The electronic state is 1-A'.
 Alpha  occ. eigenvalues --  -20.55839 -20.54971  -1.33139  -1.32272  -0.70544
 Alpha  occ. eigenvalues --   -0.69666  -0.56607  -0.55730  -0.50253  -0.49390
 Alpha virt. eigenvalues --    0.13698   0.14845   0.19963   0.20951   0.54002
 Alpha virt. eigenvalues --    0.54862   0.56971   0.57786   0.67211   0.68809
 Alpha virt. eigenvalues --    0.78631   0.79474   0.80030   0.80500   0.82605

 Mulliken charges:
               1
     1  O   -0.511489
     2  H    0.254094
     3  H    0.257470
     4  O   -0.510869
     5  H    0.251595
     6  H    0.259199
 Sum of Mulliken charges =  -0.00000

 Dipole moment (field-independent basis, Debye):
    X=             -1.9624    Y=             -2.0064    Z=              0.0000  Tot=              2.8065
 Quadrupole moment (field-independent basis, Debye-Ang):
   XX=             -9.8635   YY=              1.0059   ZZ=            -14.7134
   XY=             -5.7310   XZ=              0.0000   YZ=              0.0000

 Normal termination of Gaussian 16 at Sat Aug 27 02:58:32 2022.
