 Gaussian 16, Revision A.03,
 Gaussian 16:  ES64L-G16RevA.03 25-Dec-2016

 ------------------
 #p CCSD(T)/cc-pVTZ
 ------------------

 ------------
 H2O_H2O_4632
 ------------
 Symbolic Z-matrix:
 Charge =  0 Multiplicity = 1

                         Standard orientation:
 ---------------------------------------------------------------------
 Center     Atomic      Atomic             Coordinates (Angstroms)
 Number     Number       Type             X           Y           Z
 ---------------------------------------------------------------------
      1          8           0        0.025264   -3.256963    0.000000
      2          1           0       -0.774687   -3.827562    0.000000
      3          1           0        0.824455   -3.828627    0.000000
      4          8           0        0.025264    3.268709    0.000000
      5          1           0        0.490349    4.134273    0.000000
      6          1           0       -0.944349    3.427946    0.000000
 ---------------------------------------------------------------------

 SCF Done:  E(RHF) =  -152.106957813     A.U. after   10 cycles
 E2 =    -0.5259161620D+00 EUMP2 =    -0.15263287397502D+03
 CCSD(T)
 CCSD(T)= -0.15266010383D+03

 The electronic state is 1-A'.
 Alpha  occ. eigenvalues --  -20.55275 -20.55212  -1.32572  -1.32508  -0.69979
 Alpha  occ. eigenvalues --   -0.69914  -0.55999  -0.55935  -0.49680  -0.49617
 Alpha virt. eigenvalues --    0.14363   0.14429   0.20415   0.20482   0.54589
 Alpha virt. eigenvalues --    0.54658   0.57467   0.57531   0.68222   0.68294
 Alpha virt. eigenvalues --    0.79199   0.79262   0.80640   0.80709   0.82566

 Mulliken charges:
               1
     1  O   -0.506211
     2  H    0.252583
     3  H    0.253628
     4  O   -0.506155
     5  H    0.252312
     6  H    0.253843
 Sum of Mulliken charges =  -0.00000

 Dipole moment (field-independent basis, Debye):
    X=             -0.8685    Y=             -0.2048    Z=              0.0000  Tot=              0.8923
 Quadrupole moment (field-independent basis, Debye-Ang):
   XX=             -8.2038   YY=             13.1123   ZZ=            -14.7109
   XY=             -2.1333   XZ=              0.0000   YZ=              0.0000

 Normal termination of Gaussian 16 at Sat Aug 27 08:26:34 2022.
