 Gaussian 16, Revision A.03,
 Gaussian 16:  ES64L-G16RevA.03 25-Dec-2016

 ------------------
 #p CCSD(T)/cc-pVTZ
 ------------------

 ------------
 H2O_H2O_2820
 ------------
 Symbolic Z-matrix:
 Charge =  0 Multiplicity = 1

                         Standard orientation:
 ---------------------------------------------------------------------
 Center     Atomic      Atomic             Coordinates (Angstroms)
 Number     Number       Type             X           Y           Z
 ---------------------------------------------------------------------
      1          8           0        0.055255   -2.246885    0.000000
      2          1           0       -0.745499   -2.816357    0.000000
      3          1           0        0.853639   -2.819674    0.000000
      4          8           0        0.055255    2.331318    0.000000
      5          1           0       -0.287563    3.252178    0.000000
      6          1           0       -0.704654    1.708386    0.000000
 ---------------------------------------------------------------------

 SCF Done:  E(RHF) =  -152.107656746     A.U. after   10 cycles
 E2 =    -0.5259921088D+00 EUMP2 =    -0.15263364885447D+03
 CCSD(T)
 CCSD(T)= -0.15266084952D+03

 The electronic state is 1-A'.
 Alpha  occ. eigenvalues --  -20.55688 -20.54678  -1.32978  -1.31973  -0.70386
 Alpha  occ. eigenvalues --   -0.69357  -0.56428  -0.55420  -0.50092  -0.49091
 Alpha virt. eigenvalues --    0.13404   0.15420   0.20029   0.21497   0.54050
 Alpha virt. eigenvalues --    0.54828   0.57137   0.58022   0.66506   0.71355
 Alpha virt. eigenvalues --    0.78794   0.79770   0.79786   0.80893   0.82728

 Mulliken charges:
               1
     1  O   -0.508274
     2  H    0.251532
     3  H    0.257471
     4  O   -0.509019
     5  H    0.248628
     6  H    0.259662
 Sum of Mulliken charges =   0.00000

 Dipole moment (field-independent basis, Debye):
    X=             -1.8827    Y=             -1.5125    Z=              0.0000  Tot=              2.4150
 Quadrupole moment (field-independent basis, Debye-Ang):
   XX=             -9.7226   YY=              1.3045   ZZ=            -14.7138
   XY=             -4.1034   XZ=              0.0000   YZ=              0.0000

 Normal termination of Gaussian 16 at Fri Aug 26 16:28:51 2022.
