 Gaussian 16, Revision A.03,
 Gaussian 16:  ES64L-G16RevA.03 25-Dec-2016

 ------------------
 #p CCSD(T)/cc-pVTZ
 ------------------

 ------------
 H2O_H2O_2387
 ------------
 Symbolic Z-matrix:
 Charge =  0 Multiplicity = 1

                         Standard orientation:
 ---------------------------------------------------------------------
 Center     Atomic      Atomic             Coordinates (Angstroms)
 Number     Number       Type             X           Y           Z
 ---------------------------------------------------------------------
      1          8           0        0.040413   -2.048613    0.000000
      2          1           0       -0.760118   -2.618399    0.000000
      3          1           0        0.839022   -2.621090    0.000000
      4          8           0        0.040413    2.081934    0.000000
      5          1           0        0.203576    3.050893    0.000000
      6          1           0       -0.929091    1.922034    0.000000
 ---------------------------------------------------------------------

 SCF Done:  E(RHF) =  -152.106201438     A.U. after   10 cycles
 E2 =    -0.5261823880D+00 EUMP2 =    -0.15263238382558D+03
 CCSD(T)
 CCSD(T)= -0.15265961072D+03

 The electronic state is 1-A'.
 Alpha  occ. eigenvalues --  -20.55048 -20.54569  -1.32334  -1.31851  -0.69748
 Alpha  occ. eigenvalues --   -0.69246  -0.55727  -0.55214  -0.49438  -0.48959
 Alpha virt. eigenvalues --    0.13830   0.15612   0.20356   0.21334   0.53904
 Alpha virt. eigenvalues --    0.55259   0.57646   0.58106   0.64613   0.74165
 Alpha virt. eigenvalues --    0.79309   0.80032   0.80341   0.81376   0.82971

 Mulliken charges:
               1
     1  O   -0.500087
     2  H    0.247306
     3  H    0.253202
     4  O   -0.500045
     5  H    0.245658
     6  H    0.253965
 Sum of Mulliken charges =  -0.00000

 Dipole moment (field-independent basis, Debye):
    X=             -1.3685    Y=             -0.6017    Z=              0.0000  Tot=              1.4949
 Quadrupole moment (field-independent basis, Debye-Ang):
   XX=             -8.8431   YY=              2.9899   ZZ=            -14.7112
   XY=             -2.0485   XZ=              0.0000   YZ=              0.0000

 Normal termination of Gaussian 16 at Sat Aug 27 10:16:43 2022.
