 Gaussian 16, Revision A.03,
 Gaussian 16:  ES64L-G16RevA.03 25-Dec-2016

 ------------------
 #p CCSD(T)/cc-pVTZ
 ------------------

 -----------
 H2O_H2O_112
 -----------
 Symbolic Z-matrix:
 Charge =  0 Multiplicity = 1

                         Standard orientation:
 ---------------------------------------------------------------------
 Center     Atomic      Atomic             Coordinates (Angstroms)
 Number     Number       Type             X           Y           Z
 ---------------------------------------------------------------------
      1          8           0        0.040453   -0.838786    0.000000
      2          1           0       -0.761433   -1.406663    0.000000
      3          1           0        0.837696   -1.413163    0.000000
      4          8           0        0.040453    0.871913    0.000000
      5          1           0        0.205922    1.840483    0.000000
      6          1           0       -0.929430    0.714323    0.000000
 ---------------------------------------------------------------------

 SCF Done:  E(RHF) =  -151.973105596     A.U. after   12 cycles
 E2 =    -0.5452742448D+00 EUMP2 =    -0.15251837984078D+03
 CCSD(T)
 CCSD(T)= -0.15254391093D+03

 The electronic state is 1-A'.
 Alpha  occ. eigenvalues --  -20.52525 -20.51374  -1.36314  -1.27069  -0.72668
 Alpha  occ. eigenvalues --   -0.69075  -0.59853  -0.52381  -0.43688  -0.38919
 Alpha virt. eigenvalues --    0.14103   0.18949   0.19796   0.23745   0.53478
 Alpha virt. eigenvalues --    0.56213   0.58606   0.65343   0.72808   0.77606
 Alpha virt. eigenvalues --    0.80473   0.82221   0.82636   0.84395   0.88918

 Mulliken charges:
               1
     1  O   -0.367980
     2  H    0.171833
     3  H    0.199392
     4  O   -0.354445
     5  H    0.121040
     6  H    0.230161
 Sum of Mulliken charges =  -0.00000

 Dipole moment (field-independent basis, Debye):
    X=             -1.0975    Y=             -0.7637    Z=              0.0000  Tot=              1.3371
 Quadrupole moment (field-independent basis, Debye-Ang):
   XX=             -9.1327   YY=             -8.1070   ZZ=            -14.6797
   XY=             -0.5760   XZ=              0.0000   YZ=              0.0000

 Normal termination of Gaussian 16 at Fri Aug 26 12:52:29 2022.
