 Gaussian 16, Revision A.03,
 Gaussian 16:  ES64L-G16RevA.03 25-Dec-2016

 ------------------
 #p CCSD(T)/cc-pVTZ
 ------------------

 ------------
 H2O_H2O_1220
 ------------
 Symbolic Z-matrix:
 Charge =  0 Multiplicity = 1

                         Standard orientation:
 ---------------------------------------------------------------------
 Center     Atomic      Atomic             Coordinates (Angstroms)
 Number     Number       Type             X           Y           Z
 ---------------------------------------------------------------------
      1          8           0        0.055307   -1.396017    0.000000
      2          1           0       -0.746146   -1.964506    0.000000
      3          1           0        0.852987   -1.969787    0.000000
      4          8           0        0.055307    1.480315    0.000000
      5          1           0       -0.286380    2.401595    0.000000
      6          1           0       -0.705366    0.858317    0.000000
 ---------------------------------------------------------------------

 SCF Done:  E(RHF) =  -152.106687670     A.U. after   10 cycles
 E2 =    -0.5278114403D+00 EUMP2 =    -0.15263449911060D+03
 CCSD(T)
 CCSD(T)= -0.15266161207D+03

 The electronic state is 1-A'.
 Alpha  occ. eigenvalues --  -20.55980 -20.53187  -1.33350  -1.30479  -0.70757
 Alpha  occ. eigenvalues --   -0.68070  -0.56568  -0.53898  -0.50460  -0.47590
 Alpha virt. eigenvalues --    0.13303   0.17322   0.19752   0.24512   0.52785
 Alpha virt. eigenvalues --    0.56614   0.57030   0.58903   0.69430   0.75078
 Alpha virt. eigenvalues --    0.75355   0.78376   0.81399   0.82305   0.84445

 Mulliken charges:
               1
     1  O   -0.484613
     2  H    0.239695
     3  H    0.256375
     4  O   -0.501235
     5  H    0.230589
     6  H    0.259189
 Sum of Mulliken charges =  -0.00000

 Dipole moment (field-independent basis, Debye):
    X=             -1.7887    Y=             -1.6653    Z=              0.0000  Tot=              2.4439
 Quadrupole moment (field-independent basis, Debye-Ang):
   XX=             -9.7402   YY=             -3.2349   ZZ=            -14.7248
   XY=             -2.5434   XZ=              0.0000   YZ=              0.0000

 Normal termination of Gaussian 16 at Sat Aug 27 03:07:19 2022.
