 Gaussian 16, Revision A.03,
 Gaussian 16:  ES64L-G16RevA.03 25-Dec-2016

 ------------------
 #p CCSD(T)/cc-pVTZ
 ------------------

 ------------
 H2O_H2O_4886
 ------------
 Symbolic Z-matrix:
 Charge =  0 Multiplicity = 1

                         Standard orientation:
 ---------------------------------------------------------------------
 Center     Atomic      Atomic             Coordinates (Angstroms)
 Number     Number       Type             X           Y           Z
 ---------------------------------------------------------------------
      1          8           0        0.037671   -3.380945    0.000000
      2          1           0       -0.762445   -3.951314    0.000000
      3          1           0        0.836696   -3.952840    0.000000
      4          8           0        0.037671    3.409220    0.000000
      5          1           0        0.263160    4.365599    0.000000
      6          1           0       -0.940146    3.312359    0.000000
 ---------------------------------------------------------------------

 SCF Done:  E(RHF) =  -152.107121261     A.U. after   10 cycles
 E2 =    -0.5258998460D+00 EUMP2 =    -0.15263302110734D+03
 CCSD(T)
 CCSD(T)= -0.15266024762D+03

 The electronic state is 1-A'.
 Alpha  occ. eigenvalues --  -20.55381 -20.55240  -1.32679  -1.32537  -0.70085
 Alpha  occ. eigenvalues --   -0.69941  -0.56113  -0.55971  -0.49788  -0.49647
 Alpha virt. eigenvalues --    0.14272   0.14413   0.20332   0.20479   0.54481
 Alpha virt. eigenvalues --    0.54631   0.57373   0.57514   0.68099   0.68242
 Alpha virt. eigenvalues --    0.79091   0.79231   0.80529   0.80681   0.82454

 Mulliken charges:
               1
     1  O   -0.507179
     2  H    0.252897
     3  H    0.254282
     4  O   -0.507082
     5  H    0.252455
     6  H    0.254627
 Sum of Mulliken charges =  -0.00000

 Dipole moment (field-independent basis, Debye):
    X=             -1.2957    Y=             -0.4926    Z=              0.0000  Tot=              1.3862
 Quadrupole moment (field-independent basis, Debye-Ang):
   XX=             -8.6952   YY=             12.6186   ZZ=            -14.7113
   XY=             -3.5477   XZ=              0.0000   YZ=              0.0000

 Normal termination of Gaussian 16 at Sat Aug 27 09:53:33 2022.
