 Gaussian 16, Revision A.03,
 Gaussian 16:  ES64L-G16RevA.03 25-Dec-2016

 ------------------
 #p CCSD(T)/cc-pVTZ
 ------------------

 -----------
 H2O_H2O_808
 -----------
 Symbolic Z-matrix:
 Charge =  0 Multiplicity = 1

                         Standard orientation:
 ---------------------------------------------------------------------
 Center     Atomic      Atomic             Coordinates (Angstroms)
 Number     Number       Type             X           Y           Z
 ---------------------------------------------------------------------
      1          8           0        0.028572   -1.220817    0.000000
      2          1           0       -0.772141   -1.790348    0.000000
      3          1           0        0.826998   -1.793548    0.000000
      4          8           0        0.028572    1.236007    0.000000
      5          1           0        0.437245    2.129590    0.000000
      6          1           0       -0.949251    1.332793    0.000000
 ---------------------------------------------------------------------

 SCF Done:  E(RHF) =  -152.092590712     A.U. after   11 cycles
 E2 =    -0.5294769320D+00 EUMP2 =    -0.15262206764440D+03
 CCSD(T)
 CCSD(T)= -0.15264932303D+03

 The electronic state is 1-A'.
 Alpha  occ. eigenvalues --  -20.53456 -20.52988  -1.31325  -1.30132  -0.68625
 Alpha  occ. eigenvalues --   -0.67755  -0.57031  -0.50298  -0.48603  -0.46919
 Alpha virt. eigenvalues --    0.14355   0.17436   0.20453   0.22694   0.51919
 Alpha virt. eigenvalues --    0.58527   0.58662   0.62212   0.70866   0.76387
 Alpha virt. eigenvalues --    0.76989   0.79747   0.83807   0.86197   0.86538

 Mulliken charges:
               1
     1  O   -0.464800
     2  H    0.225175
     3  H    0.238317
     4  O   -0.450312
     5  H    0.214743
     6  H    0.236876
 Sum of Mulliken charges =  -0.00000

 Dipole moment (field-independent basis, Debye):
    X=             -0.8896    Y=             -0.2958    Z=              0.0000  Tot=              0.9374
 Quadrupole moment (field-independent basis, Debye-Ang):
   XX=             -8.4754   YY=             -3.1772   ZZ=            -14.7256
   XY=             -0.5120   XZ=              0.0000   YZ=              0.0000

 Normal termination of Gaussian 16 at Fri Aug 26 20:12:41 2022.
