 Gaussian 16, Revision A.03,
 Gaussian 16:  ES64L-G16RevA.03 25-Dec-2016

 ------------------
 #p CCSD(T)/cc-pVTZ
 ------------------

 ------------
 H2O_H2O_1947
 ------------
 Symbolic Z-matrix:
 Charge =  0 Multiplicity = 1

                         Standard orientation:
 ---------------------------------------------------------------------
 Center     Atomic      Atomic             Coordinates (Angstroms)
 Number     Number       Type             X           Y           Z
 ---------------------------------------------------------------------
      1          8           0        0.056757   -1.773609    0.000000
      2          1           0       -0.744338   -2.342601    0.000000
      3          1           0        0.854798   -2.346876    0.000000
      4          8           0        0.056757    1.872622    0.000000
      5          1           0       -0.402803    2.741133    0.000000
      6          1           0       -0.615772    1.156235    0.000000
 ---------------------------------------------------------------------

 SCF Done:  E(RHF) =  -152.108785967     A.U. after   10 cycles
 E2 =    -0.5264065138D+00 EUMP2 =    -0.15263519248081D+03
 CCSD(T)
 CCSD(T)= -0.15266233362D+03

 The electronic state is 1-A'.
 Alpha  occ. eigenvalues --  -20.56106 -20.54038  -1.33374  -1.31336  -0.70780
 Alpha  occ. eigenvalues --   -0.68704  -0.56839  -0.54805  -0.50495  -0.48467
 Alpha virt. eigenvalues --    0.13033   0.16435   0.19781   0.23670   0.53506
 Alpha virt. eigenvalues --    0.55286   0.56748   0.58389   0.66254   0.74621
 Alpha virt. eigenvalues --    0.77880   0.78797   0.79174   0.80651   0.84395

 Mulliken charges:
               1
     1  O   -0.500579
     2  H    0.248126
     3  H    0.258016
     4  O   -0.512542
     5  H    0.243765
     6  H    0.263214
 Sum of Mulliken charges =  -0.00000

 Dipole moment (field-independent basis, Debye):
    X=             -1.9030    Y=             -1.8545    Z=              0.0000  Tot=              2.6572
 Quadrupole moment (field-independent basis, Debye-Ang):
   XX=             -9.8261   YY=             -1.9180   ZZ=            -14.7191
   XY=             -3.5885   XZ=              0.0000   YZ=              0.0000

 Normal termination of Gaussian 16 at Sat Aug 27 07:42:49 2022.
