 Gaussian 16, Revision A.03,
 Gaussian 16:  ES64L-G16RevA.03 25-Dec-2016

 ------------------
 #p CCSD(T)/cc-pVTZ
 ------------------

 ------------
 H2O_H2O_3495
 ------------
 Symbolic Z-matrix:
 Charge =  0 Multiplicity = 1

                         Standard orientation:
 ---------------------------------------------------------------------
 Center     Atomic      Atomic             Coordinates (Angstroms)
 Number     Number       Type             X           Y           Z
 ---------------------------------------------------------------------
      1          8           0        0.055243   -2.605858    0.000000
      2          1           0       -0.745351   -3.175555    0.000000
      3          1           0        0.853788   -3.178423    0.000000
      4          8           0        0.055243    2.690322    0.000000
      5          1           0       -0.287833    3.611086    0.000000
      6          1           0       -0.704491    2.067178    0.000000
 ---------------------------------------------------------------------

 SCF Done:  E(RHF) =  -152.107524579     A.U. after   10 cycles
 E2 =    -0.5259049930D+00 EUMP2 =    -0.15263342957233D+03
 CCSD(T)
 CCSD(T)= -0.15266064391D+03

 The electronic state is 1-A'.
 Alpha  occ. eigenvalues --  -20.55647 -20.54929  -1.32945  -1.32226  -0.70351
 Alpha  occ. eigenvalues --   -0.69618  -0.56397  -0.55672  -0.50057  -0.49341
 Alpha virt. eigenvalues --    0.13812   0.14905   0.20092   0.20958   0.54177
 Alpha virt. eigenvalues --    0.54910   0.57138   0.57805   0.67296   0.69125
 Alpha virt. eigenvalues --    0.78826   0.79525   0.80198   0.80655   0.82678

 Mulliken charges:
               1
     1  O   -0.509453
     2  H    0.252768
     3  H    0.256772
     4  O   -0.508960
     5  H    0.250611
     6  H    0.258262
 Sum of Mulliken charges =  -0.00000

 Dipole moment (field-independent basis, Debye):
    X=             -1.8923    Y=             -1.4901    Z=              0.0000  Tot=              2.4086
 Quadrupole moment (field-independent basis, Debye-Ang):
   XX=             -9.7230   YY=              3.1189   ZZ=            -14.7127
   XY=             -4.7740   XZ=              0.0000   YZ=              0.0000

 Normal termination of Gaussian 16 at Fri Aug 26 22:48:39 2022.
