 Gaussian 16, Revision A.03,
 Gaussian 16:  ES64L-G16RevA.03 25-Dec-2016

 ------------------
 #p CCSD(T)/cc-pVTZ
 ------------------

 ------------
 H2O_H2O_3767
 ------------
 Symbolic Z-matrix:
 Charge =  0 Multiplicity = 1

                         Standard orientation:
 ---------------------------------------------------------------------
 Center     Atomic      Atomic             Coordinates (Angstroms)
 Number     Number       Type             X           Y           Z
 ---------------------------------------------------------------------
      1          8           0        0.051273   -2.763475    0.000000
      2          1           0       -0.749198   -3.333345    0.000000
      3          1           0        0.849942   -3.335868    0.000000
      4          8           0        0.051273    2.827019    0.000000
      5          1           0       -0.105788    3.796987    0.000000
      6          1           0       -0.815332    2.363876    0.000000
 ---------------------------------------------------------------------

 SCF Done:  E(RHF) =  -152.107250339     A.U. after   10 cycles
 E2 =    -0.5259104978D+00 EUMP2 =    -0.15263316083681D+03
 CCSD(T)
 CCSD(T)= -0.15266038304D+03

 The electronic state is 1-A'.
 Alpha  occ. eigenvalues --  -20.55499 -20.55021  -1.32797  -1.32317  -0.70203
 Alpha  occ. eigenvalues --   -0.69714  -0.56237  -0.55755  -0.49907  -0.49429
 Alpha virt. eigenvalues --    0.14073   0.14710   0.20214   0.20766   0.54347
 Alpha virt. eigenvalues --    0.54862   0.57263   0.57736   0.67743   0.68699
 Alpha virt. eigenvalues --    0.78974   0.79442   0.80400   0.80851   0.82460

 Mulliken charges:
               1
     1  O   -0.507975
     2  H    0.252369
     3  H    0.255620
     4  O   -0.507592
     5  H    0.250945
     6  H    0.256633
 Sum of Mulliken charges =  -0.00000

 Dipole moment (field-independent basis, Debye):
    X=             -1.7584    Y=             -1.1161    Z=              0.0000  Tot=              2.0827
 Quadrupole moment (field-independent basis, Debye-Ang):
   XX=             -9.4576   YY=              5.6724   ZZ=            -14.7119
   XY=             -4.3501   XZ=              0.0000   YZ=              0.0000

 Normal termination of Gaussian 16 at Sat Aug 27 03:09:09 2022.
