 Gaussian 16, Revision A.03,
 Gaussian 16:  ES64L-G16RevA.03 25-Dec-2016

 ------------------
 #p CCSD(T)/cc-pVTZ
 ------------------

 ------------
 H2O_H2O_2248
 ------------
 Symbolic Z-matrix:
 Charge =  0 Multiplicity = 1

                         Standard orientation:
 ---------------------------------------------------------------------
 Center     Atomic      Atomic             Coordinates (Angstroms)
 Number     Number       Type             X           Y           Z
 ---------------------------------------------------------------------
      1          8           0        0.057123   -1.929109    0.000000
      2          1           0       -0.743859   -2.498261    0.000000
      3          1           0        0.855278   -2.502218    0.000000
      4          8           0        0.057123    2.035583    0.000000
      5          1           0       -0.458424    2.872074    0.000000
      6          1           0       -0.566961    1.276619    0.000000
 ---------------------------------------------------------------------

 SCF Done:  E(RHF) =  -152.108785267     A.U. after   10 cycles
 E2 =    -0.5261831740D+00 EUMP2 =    -0.15263496844072D+03
 CCSD(T)
 CCSD(T)= -0.15266212172D+03

 The electronic state is 1-A'.
 Alpha  occ. eigenvalues --  -20.56109 -20.54271  -1.33381  -1.31574  -0.70786
 Alpha  occ. eigenvalues --   -0.68942  -0.56861  -0.55043  -0.50502  -0.48702
 Alpha virt. eigenvalues --    0.12954   0.16113   0.19794   0.23055   0.53780
 Alpha virt. eigenvalues --    0.55072   0.56800   0.58571   0.66486   0.73333
 Alpha virt. eigenvalues --    0.78251   0.79272   0.80222   0.80680   0.82854

 Mulliken charges:
               1
     1  O   -0.505423
     2  H    0.250593
     3  H    0.258650
     4  O   -0.513654
     5  H    0.246471
     6  H    0.263363
 Sum of Mulliken charges =  -0.00000

 Dipole moment (field-independent basis, Debye):
    X=             -1.9301    Y=             -1.9609    Z=              0.0000  Tot=              2.7514
 Quadrupole moment (field-independent basis, Debye-Ang):
   XX=             -9.8517   YY=             -1.6672   ZZ=            -14.7178
   XY=             -4.0478   XZ=              0.0000   YZ=              0.0000

 Normal termination of Gaussian 16 at Sat Aug 27 09:26:25 2022.
