 Gaussian 16, Revision A.03,
 Gaussian 16:  ES64L-G16RevA.03 25-Dec-2016

 ------------------
 #p CCSD(T)/cc-pVTZ
 ------------------

 -----------
 H2O_H2O_547
 -----------
 Symbolic Z-matrix:
 Charge =  0 Multiplicity = 1

                         Standard orientation:
 ---------------------------------------------------------------------
 Center     Atomic      Atomic             Coordinates (Angstroms)
 Number     Number       Type             X           Y           Z
 ---------------------------------------------------------------------
      1          8           0        0.056848   -1.029147    0.000000
      2          1           0       -0.745296   -1.596660    0.000000
      3          1           0        0.853830   -1.603887    0.000000
      4          8           0        0.056848    1.127951    0.000000
      5          1           0       -0.401108    1.997309    0.000000
      6          1           0       -0.617002    0.412806    0.000000
 ---------------------------------------------------------------------

 SCF Done:  E(RHF) =  -152.074653027     A.U. after   11 cycles
 E2 =    -0.5345238493D+00 EUMP2 =    -0.15260917687582D+03
 CCSD(T)
 CCSD(T)= -0.15263571098D+03

 The electronic state is 1-A'.
 Alpha  occ. eigenvalues --  -20.56518 -20.50477  -1.35671  -1.28173  -0.73090
 Alpha  occ. eigenvalues --   -0.69699  -0.53516  -0.52258  -0.51883  -0.45145
 Alpha virt. eigenvalues --    0.13008   0.18763   0.19286   0.26614   0.50016
 Alpha virt. eigenvalues --    0.55388   0.61764   0.64831   0.71984   0.74204
 Alpha virt. eigenvalues --    0.77758   0.81574   0.83677   0.84866   0.87344

 Mulliken charges:
               1
     1  O   -0.412039
     2  H    0.213753
     3  H    0.242550
     4  O   -0.502829
     5  H    0.197514
     6  H    0.261050
 Sum of Mulliken charges =  -0.00000

 Dipole moment (field-independent basis, Debye):
    X=             -1.6933    Y=             -2.2449    Z=              0.0000  Tot=              2.8119
 Quadrupole moment (field-independent basis, Debye-Ang):
   XX=             -9.8282   YY=             -6.2461   ZZ=            -14.6782
   XY=             -2.1896   XZ=              0.0000   YZ=              0.0000

 5078\MP4DQ=-152.6163308\MP4SDQ=-152.6196954\CCSD=-152.6189811\CCSD(T)=
 Normal termination of Gaussian 16 at Fri Aug 26 17:32:00 2022.
