 Gaussian 16, Revision A.03,
 Gaussian 16:  ES64L-G16RevA.03 25-Dec-2016

 ------------------
 #p CCSD(T)/cc-pVTZ
 ------------------

 -----------
 H2O_H2O_984
 -----------
 Symbolic Z-matrix:
 Charge =  0 Multiplicity = 1

                         Standard orientation:
 ---------------------------------------------------------------------
 Center     Atomic      Atomic             Coordinates (Angstroms)
 Number     Number       Type             X           Y           Z
 ---------------------------------------------------------------------
      1          8           0        0.031750   -1.311754    0.000000
      2          1           0       -0.769000   -1.881231    0.000000
      3          1           0        0.830139   -1.884537    0.000000
      4          8           0        0.031750    1.330873    0.000000
      5          1           0        0.381165    2.249250    0.000000
      6          1           0       -0.950307    1.363564    0.000000
 ---------------------------------------------------------------------

 SCF Done:  E(RHF) =  -152.098122850     A.U. after   11 cycles
 E2 =    -0.5284915595D+00 EUMP2 =    -0.15262661440974D+03
 CCSD(T)
 CCSD(T)= -0.15265388562D+03

 The electronic state is 1-A'.
 Alpha  occ. eigenvalues --  -20.53874 -20.53313  -1.31427  -1.30527  -0.68806
 Alpha  occ. eigenvalues --   -0.68046  -0.56357  -0.51740  -0.48656  -0.47424
 Alpha virt. eigenvalues --    0.14248   0.17170   0.20419   0.22579   0.52357
 Alpha virt. eigenvalues --    0.58348   0.58603   0.60816   0.70092   0.76529
 Alpha virt. eigenvalues --    0.76790   0.78082   0.82870   0.83484   0.85995

 Mulliken charges:
               1
     1  O   -0.470461
     2  H    0.228706
     3  H    0.241467
     4  O   -0.459358
     5  H    0.220703
     6  H    0.238943
 Sum of Mulliken charges =  -0.00000

 Dipole moment (field-independent basis, Debye):
    X=             -1.0080    Y=             -0.3685    Z=              0.0000  Tot=              1.0733
 Quadrupole moment (field-independent basis, Debye-Ang):
   XX=             -8.5567   YY=             -2.3459   ZZ=            -14.7195
   XY=             -0.6954   XZ=              0.0000   YZ=              0.0000

 Normal termination of Gaussian 16 at Fri Aug 26 21:45:30 2022.
