 Gaussian 16, Revision A.03,
 Gaussian 16:  ES64L-G16RevA.03 25-Dec-2016

 ------------------
 #p CCSD(T)/cc-pVTZ
 ------------------

 ------------
 H2O_H2O_3737
 ------------
 Symbolic Z-matrix:
 Charge =  0 Multiplicity = 1

                         Standard orientation:
 ---------------------------------------------------------------------
 Center     Atomic      Atomic             Coordinates (Angstroms)
 Number     Number       Type             X           Y           Z
 ---------------------------------------------------------------------
      1          8           0        0.040406   -2.766574    0.000000
      2          1           0       -0.759878   -3.336707    0.000000
      3          1           0        0.839263   -3.338704    0.000000
      4          8           0        0.040406    2.799929    0.000000
      5          1           0        0.203148    3.768961    0.000000
      6          1           0       -0.929029    2.639609    0.000000
 ---------------------------------------------------------------------

 SCF Done:  E(RHF) =  -152.106887542     A.U. after   10 cycles
 E2 =    -0.5259401330D+00 EUMP2 =    -0.15263282767524D+03
 CCSD(T)
 CCSD(T)= -0.15266005792D+03

 The electronic state is 1-A'.
 Alpha  occ. eigenvalues --  -20.55288 -20.55037  -1.32584  -1.32331  -0.69991
 Alpha  occ. eigenvalues --   -0.69733  -0.56007  -0.55755  -0.49691  -0.49440
 Alpha virt. eigenvalues --    0.14281   0.14653   0.20377   0.20676   0.54565
 Alpha virt. eigenvalues --    0.54853   0.57447   0.57702   0.68007   0.68708
 Alpha virt. eigenvalues --    0.79187   0.79435   0.80626   0.80895   0.82584

 Mulliken charges:
               1
     1  O   -0.505830
     2  H    0.251604
     3  H    0.254230
     4  O   -0.505564
     5  H    0.250765
     6  H    0.254796
 Sum of Mulliken charges =  -0.00000

 Dipole moment (field-independent basis, Debye):
    X=             -1.3852    Y=             -0.5854    Z=              0.0000  Tot=              1.5038
 Quadrupole moment (field-independent basis, Debye-Ang):
   XX=             -8.8320   YY=              7.9569   ZZ=            -14.7110
   XY=             -3.0275   XZ=              0.0000   YZ=              0.0000

 Normal termination of Gaussian 16 at Sat Aug 27 02:52:40 2022.
