 Gaussian 16, Revision A.03,
 Gaussian 16:  ES64L-G16RevA.03 25-Dec-2016

 ------------------
 #p CCSD(T)/cc-pVTZ
 ------------------

 ---------
 H2O_H2O_7
 ---------
 Symbolic Z-matrix:
 Charge =  0 Multiplicity = 1

                         Standard orientation:
 ---------------------------------------------------------------------
 Center     Atomic      Atomic             Coordinates (Angstroms)
 Number     Number       Type             X           Y           Z
 ---------------------------------------------------------------------
      1          8           0        0.025276   -0.797273    0.000000
      2          1           0       -0.775838   -1.366238    0.000000
      3          1           0        0.823298   -1.370568    0.000000
      4          8           0        0.025276    0.808916    0.000000
      5          1           0        0.492127    1.673530    0.000000
      6          1           0       -0.944010    0.970133    0.000000
 ---------------------------------------------------------------------

 SCF Done:  E(RHF) =  -151.911657719     A.U. after   12 cycles
 E2 =    -0.5528179157D+00 EUMP2 =    -0.15246447563454D+03
 CCSD(T)
 CCSD(T)= -0.15248856206D+03

 The electronic state is 1-A'.
 Alpha  occ. eigenvalues --  -20.52001 -20.51652  -1.37972  -1.26773  -0.72705
 Alpha  occ. eigenvalues --   -0.69672  -0.63549  -0.53720  -0.43152  -0.32694
 Alpha virt. eigenvalues --    0.14160   0.19309   0.19999   0.23331   0.52523
 Alpha virt. eigenvalues --    0.56349   0.58900   0.65651   0.70495   0.78495
 Alpha virt. eigenvalues --    0.79945   0.83176   0.83181   0.84880   0.88714

 Mulliken charges:
               1
     1  O   -0.333236
     2  H    0.156118
     3  H    0.179800
     4  O   -0.318510
     5  H    0.100358
     6  H    0.215469
 Sum of Mulliken charges =  -0.00000

 Dipole moment (field-independent basis, Debye):
    X=             -0.7111    Y=             -0.3264    Z=              0.0000  Tot=              0.7825
 Quadrupole moment (field-independent basis, Debye-Ang):
   XX=             -8.8168   YY=             -9.4933   ZZ=            -14.7392
   XY=             -0.4026   XZ=              0.0000   YZ=              0.0000

 Normal termination of Gaussian 16 at Fri Aug 26 11:50:12 2022.
