 Gaussian 16, Revision A.03,
 Gaussian 16:  ES64L-G16RevA.03 25-Dec-2016

 ------------------
 #p CCSD(T)/cc-pVTZ
 ------------------

 -----------
 H2O_H2O_351
 -----------
 Symbolic Z-matrix:
 Charge =  0 Multiplicity = 1

                         Standard orientation:
 ---------------------------------------------------------------------
 Center     Atomic      Atomic             Coordinates (Angstroms)
 Number     Number       Type             X           Y           Z
 ---------------------------------------------------------------------
      1          8           0        0.003735   -0.989610    0.000000
      2          1           0       -0.796021   -1.560482    0.000000
      3          1           0        0.803121   -1.561002    0.000000
      4          8           0        0.003735    0.989852    0.000000
      5          1           0        0.764443    1.611809    0.000000
      6          1           0       -0.831309    1.507738    0.000000
 ---------------------------------------------------------------------

 SCF Done:  E(RHF) =  -152.044946979     A.U. after   10 cycles
 E2 =    -0.5359111201D+00 EUMP2 =    -0.15258085809931D+03
 CCSD(T)
 CCSD(T)= -0.15260760106D+03

 The electronic state is 1-A'.
 Alpha  occ. eigenvalues --  -20.51690 -20.51683  -1.32046  -1.28373  -0.68529
 Alpha  occ. eigenvalues --   -0.66323  -0.61505  -0.49241  -0.44773  -0.42918
 Alpha virt. eigenvalues --    0.14672   0.18543   0.20451   0.22829   0.50234
 Alpha virt. eigenvalues --    0.59177   0.59283   0.66482   0.69679   0.78200
 Alpha virt. eigenvalues --    0.79430   0.83034   0.84501   0.86669   0.87305

 Mulliken charges:
               1
     1  O   -0.424932
     2  H    0.211256
     3  H    0.213603
     4  O   -0.424180
     5  H    0.208106
     6  H    0.216146
 Sum of Mulliken charges =  -0.00000

 Dipole moment (field-independent basis, Debye):
    X=             -0.1089    Y=             -0.0053    Z=              0.0000  Tot=              0.1091
 Quadrupole moment (field-independent basis, Debye-Ang):
   XX=             -8.1799   YY=             -5.9208   ZZ=            -14.7539
   XY=             -0.0339   XZ=              0.0000   YZ=              0.0000

 Normal termination of Gaussian 16 at Fri Aug 26 15:33:57 2022.
