 Gaussian 16, Revision A.03,
 Gaussian 16:  ES64L-G16RevA.03 25-Dec-2016

 ------------------
 #p CCSD(T)/cc-pVTZ
 ------------------

 -----------
 H2O_H2O_672
 -----------
 Symbolic Z-matrix:
 Charge =  0 Multiplicity = 1

                         Standard orientation:
 ---------------------------------------------------------------------
 Center     Atomic      Atomic             Coordinates (Angstroms)
 Number     Number       Type             X           Y           Z
 ---------------------------------------------------------------------
      1          8           0        0.056835   -1.095611    0.000000
      2          1           0       -0.745160   -1.663334    0.000000
      3          1           0        0.853968   -1.670142    0.000000
      4          8           0        0.056835    1.194445    0.000000
      5          1           0       -0.401349    2.063682    0.000000
      6          1           0       -0.616827    0.479123    0.000000
 ---------------------------------------------------------------------

 SCF Done:  E(RHF) =  -152.088970237     A.U. after   11 cycles
 E2 =    -0.5324009581D+00 EUMP2 =    -0.15262137119511D+03
 CCSD(T)
 CCSD(T)= -0.15264811664D+03

 The electronic state is 1-A'.
 Alpha  occ. eigenvalues --  -20.56557 -20.51154  -1.35000  -1.28734  -0.72348
 Alpha  occ. eigenvalues --   -0.69008  -0.54892  -0.52396  -0.51825  -0.45744
 Alpha virt. eigenvalues --    0.13046   0.18551   0.19317   0.26462   0.50347
 Alpha virt. eigenvalues --    0.55761   0.61203   0.63301   0.71754   0.73802
 Alpha virt. eigenvalues --    0.77048   0.82270   0.83643   0.84113   0.87064

 Mulliken charges:
               1
     1  O   -0.435680
     2  H    0.223157
     3  H    0.247120
     4  O   -0.504996
     5  H    0.208009
     6  H    0.262390
 Sum of Mulliken charges =  -0.00000

 Dipole moment (field-independent basis, Debye):
    X=             -1.7320    Y=             -2.1751    Z=              0.0000  Tot=              2.7805
 Quadrupole moment (field-independent basis, Debye-Ang):
   XX=             -9.8304   YY=             -5.7161   ZZ=            -14.6987
   XY=             -2.3227   XZ=              0.0000   YZ=              0.0000

 Normal termination of Gaussian 16 at Fri Aug 26 18:54:14 2022.
