 Gaussian 16, Revision A.03,
 Gaussian 16:  ES64L-G16RevA.03 25-Dec-2016

 ------------------
 #p CCSD(T)/cc-pVTZ
 ------------------

 ------------
 H2O_H2O_4729
 ------------
 Symbolic Z-matrix:
 Charge =  0 Multiplicity = 1

                         Standard orientation:
 ---------------------------------------------------------------------
 Center     Atomic      Atomic             Coordinates (Angstroms)
 Number     Number       Type             X           Y           Z
 ---------------------------------------------------------------------
      1          8           0        0.014783   -3.314418    0.000000
      2          1           0       -0.785007   -3.885243    0.000000
      3          1           0        0.814135   -3.885857    0.000000
      4          8           0        0.014783    3.318299    0.000000
      5          1           0        0.639581    4.076675    0.000000
      6          1           0       -0.905232    3.663379    0.000000
 ---------------------------------------------------------------------

 SCF Done:  E(RHF) =  -152.106930293     A.U. after   10 cycles
 E2 =    -0.5259173800D+00 EUMP2 =    -0.15263284767324D+03
 CCSD(T)
 CCSD(T)= -0.15266007819D+03

 The electronic state is 1-A'.
 Alpha  occ. eigenvalues --  -20.55249 -20.55229  -1.32546  -1.32525  -0.69952
 Alpha  occ. eigenvalues --   -0.69932  -0.55971  -0.55951  -0.49653  -0.49633
 Alpha virt. eigenvalues --    0.14387   0.14411   0.20438   0.20460   0.54616
 Alpha virt. eigenvalues --    0.54638   0.57491   0.57512   0.68252   0.68281
 Alpha virt. eigenvalues --    0.79226   0.79246   0.80667   0.80690   0.82593

 Mulliken charges:
               1
     1  O   -0.506046
     2  H    0.252731
     3  H    0.253315
     4  O   -0.506028
     5  H    0.252596
     6  H    0.253432
 Sum of Mulliken charges =  -0.00000

 Dipole moment (field-independent basis, Debye):
    X=             -0.5082    Y=             -0.0676    Z=              0.0000  Tot=              0.5127
 Quadrupole moment (field-independent basis, Debye-Ang):
   XX=             -7.9391   YY=             14.1776   ZZ=            -14.7108
   XY=             -1.2385   XZ=              0.0000   YZ=              0.0000

 Normal termination of Gaussian 16 at Sat Aug 27 08:59:50 2022.
