 Gaussian 16, Revision A.03,
 Gaussian 16:  ES64L-G16RevA.03 25-Dec-2016

 ------------------
 #p CCSD(T)/cc-pVTZ
 ------------------

 -----------
 H2O_H2O_464
 -----------
 Symbolic Z-matrix:
 Charge =  0 Multiplicity = 1

                         Standard orientation:
 ---------------------------------------------------------------------
 Center     Atomic      Atomic             Coordinates (Angstroms)
 Number     Number       Type             X           Y           Z
 ---------------------------------------------------------------------
      1          8           0        0.045394   -1.018834    0.000000
      2          1           0       -0.756311   -1.586966    0.000000
      3          1           0        0.842820   -1.592958    0.000000
      4          8           0        0.045394    1.063184    0.000000
      5          1           0        0.082713    2.045077    0.000000
      6          1           0       -0.895531    0.780048    0.000000
 ---------------------------------------------------------------------

 SCF Done:  E(RHF) =  -152.069137175     A.U. after   11 cycles
 E2 =    -0.5338082785D+00 EUMP2 =    -0.15260294545335D+03
 CCSD(T)
 CCSD(T)= -0.15262986568D+03

 The electronic state is 1-A'.
 Alpha  occ. eigenvalues --  -20.53717 -20.52016  -1.32947  -1.28943  -0.70165
 Alpha  occ. eigenvalues --   -0.67990  -0.57439  -0.49977  -0.47981  -0.45697
 Alpha virt. eigenvalues --    0.14041   0.18096   0.20035   0.23816   0.53017
 Alpha virt. eigenvalues --    0.57430   0.58634   0.62913   0.71683   0.75881
 Alpha virt. eigenvalues --    0.79781   0.82219   0.83193   0.85051   0.88097

 Mulliken charges:
               1
     1  O   -0.440541
     2  H    0.211219
     3  H    0.231662
     4  O   -0.424133
     5  H    0.181025
     6  H    0.240767
 Sum of Mulliken charges =  -0.00000

 Dipole moment (field-independent basis, Debye):
    X=             -1.3319    Y=             -0.9015    Z=              0.0000  Tot=              1.6083
 Quadrupole moment (field-independent basis, Debye-Ang):
   XX=             -9.2523   YY=             -5.4168   ZZ=            -14.7175
   XY=             -0.9493   XZ=              0.0000   YZ=              0.0000

 Normal termination of Gaussian 16 at Fri Aug 26 16:42:29 2022.
