 Gaussian 16, Revision A.03,
 Gaussian 16:  ES64L-G16RevA.03 25-Dec-2016

 ------------------
 #p CCSD(T)/cc-pVTZ
 ------------------

 ------------
 H2O_H2O_2439
 ------------
 Symbolic Z-matrix:
 Charge =  0 Multiplicity = 1

                         Standard orientation:
 ---------------------------------------------------------------------
 Center     Atomic      Atomic             Coordinates (Angstroms)
 Number     Number       Type             X           Y           Z
 ---------------------------------------------------------------------
      1          8           0        0.045353   -2.069122    0.000000
      2          1           0       -0.755282   -2.638762    0.000000
      3          1           0        0.843857   -2.641744    0.000000
      4          8           0        0.045353    2.113642    0.000000
      5          1           0        0.080823    3.095604    0.000000
      6          1           0       -0.895038    1.828737    0.000000
 ---------------------------------------------------------------------

 SCF Done:  E(RHF) =  -152.106555878     A.U. after   10 cycles
 E2 =    -0.5261461843D+00 EUMP2 =    -0.15263270206205D+03
 CCSD(T)
 CCSD(T)= -0.15265992167D+03

 The electronic state is 1-A'.
 Alpha  occ. eigenvalues --  -20.55204 -20.54573  -1.32490  -1.31857  -0.69903
 Alpha  occ. eigenvalues --   -0.69247  -0.55890  -0.55249  -0.49596  -0.48967
 Alpha virt. eigenvalues --    0.13704   0.15611   0.20271   0.21425   0.53911
 Alpha virt. eigenvalues --    0.55061   0.57529   0.58113   0.65136   0.73935
 Alpha virt. eigenvalues --    0.79200   0.79977   0.80169   0.81677   0.83309

 Mulliken charges:
               1
     1  O   -0.501902
     2  H    0.248046
     3  H    0.254427
     4  O   -0.502207
     5  H    0.246050
     6  H    0.255586
 Sum of Mulliken charges =  -0.00000

 Dipole moment (field-independent basis, Debye):
    X=             -1.5370    Y=             -0.8035    Z=              0.0000  Tot=              1.7344
 Quadrupole moment (field-independent basis, Debye-Ang):
   XX=             -9.1048   YY=              2.6126   ZZ=            -14.7119
   XY=             -2.4980   XZ=              0.0000   YZ=              0.0000

 Normal termination of Gaussian 16 at Sat Aug 27 10:34:05 2022.
