 Gaussian 16, Revision A.03,
 Gaussian 16:  ES64L-G16RevA.03 25-Dec-2016

 ------------------
 #p CCSD(T)/cc-pVTZ
 ------------------

 ------------
 H2O_H2O_4984
 ------------
 Symbolic Z-matrix:
 Charge =  0 Multiplicity = 1

                         Standard orientation:
 ---------------------------------------------------------------------
 Center     Atomic      Atomic             Coordinates (Angstroms)
 Number     Number       Type             X           Y           Z
 ---------------------------------------------------------------------
      1          8           0        0.031738   -3.439057    0.000000
      2          1           0       -0.768285   -4.009556    0.000000
      3          1           0        0.830856   -4.010822    0.000000
      4          8           0        0.031738    3.458258    0.000000
      5          1           0        0.379981    4.377079    0.000000
      6          1           0       -0.950360    3.489696    0.000000
 ---------------------------------------------------------------------

 SCF Done:  E(RHF) =  -152.107083597     A.U. after   10 cycles
 E2 =    -0.5259021229D+00 EUMP2 =    -0.15263298571961D+03
 CCSD(T)
 CCSD(T)= -0.15266021310D+03

 The electronic state is 1-A'.
 Alpha  occ. eigenvalues --  -20.55349 -20.55256  -1.32646  -1.32553  -0.70053
 Alpha  occ. eigenvalues --   -0.69958  -0.56078  -0.55986  -0.49755  -0.49662
 Alpha virt. eigenvalues --    0.14302   0.14394   0.20359   0.20455   0.54514
 Alpha virt. eigenvalues --    0.54613   0.57403   0.57496   0.68136   0.68230
 Alpha virt. eigenvalues --    0.79124   0.79216   0.80563   0.80663   0.82487

 Mulliken charges:
               1
     1  O   -0.506953
     2  H    0.252918
     3  H    0.254035
     4  O   -0.506886
     5  H    0.252591
     6  H    0.254295
 Sum of Mulliken charges =  -0.00000

 Dipole moment (field-independent basis, Debye):
    X=             -1.0918    Y=             -0.3343    Z=              0.0000  Tot=              1.1419
 Quadrupole moment (field-independent basis, Debye-Ang):
   XX=             -8.4353   YY=             13.8420   ZZ=            -14.7112
   XY=             -2.9561   XZ=              0.0000   YZ=              0.0000

 Normal termination of Gaussian 16 at Sat Aug 27 10:28:49 2022.
