 Gaussian 16, Revision A.03,
 Gaussian 16:  ES64L-G16RevA.03 25-Dec-2016

 ------------------
 #p CCSD(T)/cc-pVTZ
 ------------------

 ------------
 H2O_H2O_2342
 ------------
 Symbolic Z-matrix:
 Charge =  0 Multiplicity = 1

                         Standard orientation:
 ---------------------------------------------------------------------
 Center     Atomic      Atomic             Coordinates (Angstroms)
 Number     Number       Type             X           Y           Z
 ---------------------------------------------------------------------
      1          8           0        0.051292   -2.005640    0.000000
      2          1           0       -0.749513   -2.575040    0.000000
      3          1           0        0.849625   -2.578501    0.000000
      4          8           0        0.051292    2.069123    0.000000
      5          1           0       -0.105200    3.039183    0.000000
      6          1           0       -0.815585    1.606489    0.000000
 ---------------------------------------------------------------------

 SCF Done:  E(RHF) =  -152.107117590     A.U. after   10 cycles
 E2 =    -0.5261683818D+00 EUMP2 =    -0.15263328597188D+03
 CCSD(T)
 CCSD(T)= -0.15266048654D+03

 The electronic state is 1-A'.
 Alpha  occ. eigenvalues --  -20.55454 -20.54475  -1.32736  -1.31760  -0.70148
 Alpha  occ. eigenvalues --   -0.69140  -0.56152  -0.55179  -0.49846  -0.48877
 Alpha virt. eigenvalues --    0.13440   0.15797   0.20120   0.21830   0.53897
 Alpha virt. eigenvalues --    0.54707   0.57338   0.58291   0.65324   0.74428
 Alpha virt. eigenvalues --    0.78938   0.79626   0.80075   0.81819   0.83546

 Mulliken charges:
               1
     1  O   -0.502955
     2  H    0.248340
     3  H    0.255901
     4  O   -0.505026
     5  H    0.245667
     6  H    0.258074
 Sum of Mulliken charges =  -0.00000

 Dipole moment (field-independent basis, Debye):
    X=             -1.7351    Y=             -1.1539    Z=              0.0000  Tot=              2.0838
 Quadrupole moment (field-independent basis, Debye-Ang):
   XX=             -9.4615   YY=              1.2576   ZZ=            -14.7135
   XY=             -3.0378   XZ=              0.0000   YZ=              0.0000

 49916\MP4DQ=-152.642347\MP4SDQ=-152.6454188\CCSD=-152.6448223\CCSD(T)=
 Normal termination of Gaussian 16 at Sat Aug 27 09:58:58 2022.
