 Gaussian 16, Revision A.03,
 Gaussian 16:  ES64L-G16RevA.03 25-Dec-2016

 ------------------
 #p CCSD(T)/cc-pVTZ
 ------------------

 ------------
 H2O_H2O_2424
 ------------
 Symbolic Z-matrix:
 Charge =  0 Multiplicity = 1

                         Standard orientation:
 ---------------------------------------------------------------------
 Center     Atomic      Atomic             Coordinates (Angstroms)
 Number     Number       Type             X           Y           Z
 ---------------------------------------------------------------------
      1          8           0        0.057248   -2.018118    0.000000
      2          1           0       -0.743674   -2.587354    0.000000
      3          1           0        0.855464   -2.591142    0.000000
      4          8           0        0.057248    2.132073    0.000000
      5          1           0       -0.511988    2.932996    0.000000
      6          1           0       -0.515776    1.333857    0.000000
 ---------------------------------------------------------------------

 SCF Done:  E(RHF) =  -152.108841802     A.U. after   10 cycles
 E2 =    -0.5260928375D+00 EUMP2 =    -0.15263493463912D+03
 CCSD(T)
 CCSD(T)= -0.15266209213D+03

 The electronic state is 1-A'.
 Alpha  occ. eigenvalues --  -20.56145 -20.54378  -1.33419  -1.31683  -0.70824
 Alpha  occ. eigenvalues --   -0.69055  -0.56909  -0.55155  -0.50542  -0.48811
 Alpha virt. eigenvalues --    0.12913   0.15950   0.19780   0.22743   0.53793
 Alpha virt. eigenvalues --    0.55047   0.56784   0.58546   0.66749   0.72334
 Alpha virt. eigenvalues --    0.78302   0.79335   0.80061   0.80740   0.82409

 Mulliken charges:
               1
     1  O   -0.507845
     2  H    0.251923
     3  H    0.259044
     4  O   -0.514208
     5  H    0.247752
     6  H    0.263333
 Sum of Mulliken charges =  -0.00000

 Dipole moment (field-independent basis, Debye):
    X=             -1.9409    Y=             -2.0820    Z=              0.0000  Tot=              2.8464
 Quadrupole moment (field-independent basis, Debye-Ang):
   XX=             -9.8610   YY=             -1.8043   ZZ=            -14.7175
   XY=             -4.3677   XZ=              0.0000   YZ=              0.0000

 Normal termination of Gaussian 16 at Sat Aug 27 10:29:00 2022.
