 Gaussian 16, Revision A.03,
 Gaussian 16:  ES64L-G16RevA.03 25-Dec-2016

 ------------------
 #p CCSD(T)/cc-pVTZ
 ------------------

 -----------
 H2O_H2O_952
 -----------
 Symbolic Z-matrix:
 Charge =  0 Multiplicity = 1

                         Standard orientation:
 ---------------------------------------------------------------------
 Center     Atomic      Atomic             Coordinates (Angstroms)
 Number     Number       Type             X           Y           Z
 ---------------------------------------------------------------------
      1          8           0        0.007455   -1.308317    0.000000
      2          1           0       -0.792396   -1.879057    0.000000
      3          1           0        0.806746   -1.879841    0.000000
      4          8           0        0.007455    1.309287    0.000000
      5          1           0        0.725967    1.979546    0.000000
      6          1           0       -0.859597    1.771593    0.000000
 ---------------------------------------------------------------------

 SCF Done:  E(RHF) =  -152.095569312     A.U. after   11 cycles
 E2 =    -0.5285942232D+00 EUMP2 =    -0.15262416353503D+03
 CCSD(T)
 CCSD(T)= -0.15265147996D+03

 The electronic state is 1-A'.
 Alpha  occ. eigenvalues --  -20.53297 -20.53271  -1.31039  -1.30391  -0.68372
 Alpha  occ. eigenvalues --   -0.67926  -0.56515  -0.50927  -0.48312  -0.47205
 Alpha virt. eigenvalues --    0.14476   0.17305   0.20568   0.22225   0.50634
 Alpha virt. eigenvalues --    0.58687   0.58843   0.62353   0.72635   0.76666
 Alpha virt. eigenvalues --    0.76797   0.78773   0.81248   0.83754   0.86411

 Mulliken charges:
               1
     1  O   -0.462863
     2  H    0.229691
     3  H    0.233033
     4  O   -0.461723
     5  H    0.229220
     6  H    0.232642
 Sum of Mulliken charges =  -0.00000

 Dipole moment (field-independent basis, Debye):
    X=             -0.2367    Y=             -0.0186    Z=              0.0000  Tot=              0.2374
 Quadrupole moment (field-independent basis, Debye-Ang):
   XX=             -7.9911   YY=             -2.2609   ZZ=            -14.7196
   XY=             -0.1202   XZ=              0.0000   YZ=              0.0000

 6667\MP4DQ=-152.6328689\MP4SDQ=-152.6360828\CCSD=-152.6354402\CCSD(T)=
 Normal termination of Gaussian 16 at Fri Aug 26 21:28:00 2022.
