 Gaussian 16, Revision A.03,
 Gaussian 16:  ES64L-G16RevA.03 25-Dec-2016

 ------------------
 #p CCSD(T)/cc-pVTZ
 ------------------

 ------------
 H2O_H2O_3245
 ------------
 Symbolic Z-matrix:
 Charge =  0 Multiplicity = 1

                         Standard orientation:
 ---------------------------------------------------------------------
 Center     Atomic      Atomic             Coordinates (Angstroms)
 Number     Number       Type             X           Y           Z
 ---------------------------------------------------------------------
      1          8           0        0.055247   -2.472905    0.000000
      2          1           0       -0.745401   -3.042526    0.000000
      3          1           0        0.853738   -3.045546    0.000000
      4          8           0        0.055247    2.557359    0.000000
      5          1           0       -0.287742    3.478154    0.000000
      6          1           0       -0.704546    1.934286    0.000000
 ---------------------------------------------------------------------

 SCF Done:  E(RHF) =  -152.107557550     A.U. after   10 cycles
 E2 =    -0.5259259817D+00 EUMP2 =    -0.15263348353139D+03
 CCSD(T)
 CCSD(T)= -0.15266069450D+03

 The electronic state is 1-A'.
 Alpha  occ. eigenvalues --  -20.55657 -20.54848  -1.32953  -1.32145  -0.70360
 Alpha  occ. eigenvalues --   -0.69535  -0.56405  -0.55591  -0.50065  -0.49261
 Alpha virt. eigenvalues --    0.13675   0.15070   0.20072   0.21106   0.54138
 Alpha virt. eigenvalues --    0.54923   0.57139   0.57850   0.67023   0.69696
 Alpha virt. eigenvalues --    0.78820   0.79602   0.80078   0.80615   0.82770

 Mulliken charges:
               1
     1  O   -0.509318
     2  H    0.252449
     3  H    0.257079
     4  O   -0.508955
     5  H    0.249992
     6  H    0.258754
 Sum of Mulliken charges =  -0.00000

 Dipole moment (field-independent basis, Debye):
    X=             -1.8896    Y=             -1.4966    Z=              0.0000  Tot=              2.4104
 Quadrupole moment (field-independent basis, Debye-Ang):
   XX=             -9.7227   YY=              2.4474   ZZ=            -14.7130
   XY=             -4.5250   XZ=              0.0000   YZ=              0.0000

 Normal termination of Gaussian 16 at Fri Aug 26 20:41:29 2022.
