 Gaussian 16, Revision A.03,
 Gaussian 16:  ES64L-G16RevA.03 25-Dec-2016

 ------------------
 #p CCSD(T)/cc-pVTZ
 ------------------

 -----------
 H2O_H2O_893
 -----------
 Symbolic Z-matrix:
 Charge =  0 Multiplicity = 1

                         Standard orientation:
 ---------------------------------------------------------------------
 Center     Atomic      Atomic             Coordinates (Angstroms)
 Number     Number       Type             X           Y           Z
 ---------------------------------------------------------------------
      1          8           0        0.052892   -1.230861    0.000000
      2          1           0       -0.748723   -1.799121    0.000000
      3          1           0        0.850408   -1.804859    0.000000
      4          8           0        0.052892    1.300996    0.000000
      5          1           0       -0.165346    2.259056    0.000000
      6          1           0       -0.782609    0.783846    0.000000
 ---------------------------------------------------------------------

 SCF Done:  E(RHF) =  -152.100149822     A.U. after   11 cycles
 E2 =    -0.5293217634D+00 EUMP2 =    -0.15262947158590D+03
 CCSD(T)
 CCSD(T)= -0.15265658168D+03

 The electronic state is 1-A'.
 Alpha  occ. eigenvalues --  -20.55409 -20.52723  -1.33064  -1.29996  -0.70460
 Alpha  occ. eigenvalues --   -0.68003  -0.56127  -0.52892  -0.50165  -0.47029
 Alpha virt. eigenvalues --    0.13542   0.17669   0.19850   0.24320   0.52493
 Alpha virt. eigenvalues --    0.57107   0.59319   0.59567   0.71085   0.74657
 Alpha virt. eigenvalues --    0.77004   0.82268   0.82893   0.83425   0.84656

 Mulliken charges:
               1
     1  O   -0.470166
     2  H    0.231446
     3  H    0.249915
     4  O   -0.481533
     5  H    0.216826
     6  H    0.253512
 Sum of Mulliken charges =  -0.00000

 Dipole moment (field-independent basis, Debye):
    X=             -1.6590    Y=             -1.4089    Z=              0.0000  Tot=              2.1765
 Quadrupole moment (field-independent basis, Debye-Ang):
   XX=             -9.6083   YY=             -3.8988   ZZ=            -14.7240
   XY=             -1.9018   XZ=              0.0000   YZ=              0.0000

 Normal termination of Gaussian 16 at Fri Aug 26 20:56:08 2022.
