 Gaussian 16, Revision A.03,
 Gaussian 16:  ES64L-G16RevA.03 25-Dec-2016

 ------------------
 #p CCSD(T)/cc-pVTZ
 ------------------

 ------------
 H2O_H2O_1024
 ------------
 Symbolic Z-matrix:
 Charge =  0 Multiplicity = 1

                         Standard orientation:
 ---------------------------------------------------------------------
 Center     Atomic      Atomic             Coordinates (Angstroms)
 Number     Number       Type             X           Y           Z
 ---------------------------------------------------------------------
      1          8           0        0.057324   -1.273626    0.000000
      2          1           0       -0.744352   -1.841799    0.000000
      3          1           0        0.854779   -1.847709    0.000000
      4          8           0        0.057324    1.387429    0.000000
      5          1           0       -0.510850    2.189106    0.000000
      6          1           0       -0.516759    0.589974    0.000000
 ---------------------------------------------------------------------

 SCF Done:  E(RHF) =  -152.106542615     A.U. after   10 cycles
 E2 =    -0.5291965299D+00 EUMP2 =    -0.15263573914471D+03
 CCSD(T)
 CCSD(T)= -0.15266266958D+03

 The electronic state is 1-A'.
 Alpha  occ. eigenvalues --  -20.57123 -20.52116  -1.34718  -1.29598  -0.72045
 Alpha  occ. eigenvalues --   -0.68131  -0.57222  -0.53127  -0.51762  -0.46695
 Alpha virt. eigenvalues --    0.12829   0.18054   0.19292   0.27124   0.50528
 Alpha virt. eigenvalues --    0.55899   0.59102   0.60535   0.70718   0.73522
 Alpha virt. eigenvalues --    0.74304   0.80035   0.82615   0.83506   0.86490

 Mulliken charges:
               1
     1  O   -0.475404
     2  H    0.241534
     3  H    0.258368
     4  O   -0.525486
     5  H    0.228584
     6  H    0.272404
 Sum of Mulliken charges =   0.00000

 Dipole moment (field-independent basis, Debye):
    X=             -1.8287    Y=             -2.3960    Z=              0.0000  Tot=              3.0141
 Quadrupole moment (field-independent basis, Debye-Ang):
   XX=             -9.8531   YY=             -5.1306   ZZ=            -14.7222
   XY=             -2.9624   XZ=              0.0000   YZ=              0.0000

 Normal termination of Gaussian 16 at Sat Aug 27 01:28:31 2022.
