 Gaussian 16, Revision A.03,
 Gaussian 16:  ES64L-G16RevA.03 25-Dec-2016

 ------------------
 #p CCSD(T)/cc-pVTZ
 ------------------

 -----------
 H2O_H2O_441
 -----------
 Symbolic Z-matrix:
 Charge =  0 Multiplicity = 1

                         Standard orientation:
 ---------------------------------------------------------------------
 Center     Atomic      Atomic             Coordinates (Angstroms)
 Number     Number       Type             X           Y           Z
 ---------------------------------------------------------------------
      1          8           0        0.049579   -0.998829    0.000000
      2          1           0       -0.752352   -1.566641    0.000000
      3          1           0        0.846776   -1.573270    0.000000
      4          8           0        0.049579    1.055531    0.000000
      5          1           0       -0.041195    2.033931    0.000000
      6          1           0       -0.846500    0.652359    0.000000
 ---------------------------------------------------------------------

 SCF Done:  E(RHF) =  -152.065300653     A.U. after   11 cycles
 E2 =    -0.5346555218D+00 EUMP2 =    -0.15259995617479D+03
 CCSD(T)
 CCSD(T)= -0.15262678012D+03

 The electronic state is 1-A'.
 Alpha  occ. eigenvalues --  -20.54163 -20.51739  -1.33623  -1.28721  -0.70943
 Alpha  occ. eigenvalues --   -0.68437  -0.56502  -0.50497  -0.48465  -0.45542
 Alpha virt. eigenvalues --    0.13844   0.18292   0.19868   0.24245   0.52404
 Alpha virt. eigenvalues --    0.57067   0.59461   0.63129   0.71999   0.75567
 Alpha virt. eigenvalues --    0.79871   0.82833   0.83389   0.84489   0.88085

 Mulliken charges:
               1
     1  O   -0.428625
     2  H    0.206754
     3  H    0.230215
     4  O   -0.431011
     5  H    0.179157
     6  H    0.243510
 Sum of Mulliken charges =  -0.00000

 Dipole moment (field-independent basis, Debye):
    X=             -1.4462    Y=             -1.1726    Z=              0.0000  Tot=              1.8618
 Quadrupole moment (field-independent basis, Debye-Ang):
   XX=             -9.4678   YY=             -5.7374   ZZ=            -14.7052
   XY=             -1.1888   XZ=              0.0000   YZ=              0.0000

 Normal termination of Gaussian 16 at Fri Aug 26 16:29:20 2022.
