 Gaussian 16, Revision A.03,
 Gaussian 16:  ES64L-G16RevA.03 25-Dec-2016

 ------------------
 #p CCSD(T)/cc-pVTZ
 ------------------

 ------------
 H2O_H2O_2796
 ------------
 Symbolic Z-matrix:
 Charge =  0 Multiplicity = 1

                         Standard orientation:
 ---------------------------------------------------------------------
 Center     Atomic      Atomic             Coordinates (Angstroms)
 Number     Number       Type             X           Y           Z
 ---------------------------------------------------------------------
      1          8           0        0.056113   -2.229640    0.000000
      2          1           0       -0.744666   -2.799077    0.000000
      3          1           0        0.854472   -2.802466    0.000000
      4          8           0        0.056113    2.321345    0.000000
      5          1           0       -0.346157    3.217829    0.000000
      6          1           0       -0.661458    1.650078    0.000000
 ---------------------------------------------------------------------

 SCF Done:  E(RHF) =  -152.107849146     A.U. after   10 cycles
 E2 =    -0.5259912974D+00 EUMP2 =    -0.15263384044391D+03
 CCSD(T)
 CCSD(T)= -0.15266103512D+03

 The electronic state is 1-A'.
 Alpha  occ. eigenvalues --  -20.55771 -20.54653  -1.33060  -1.31949  -0.70467
 Alpha  occ. eigenvalues --   -0.69331  -0.56517  -0.55401  -0.50175  -0.49069
 Alpha virt. eigenvalues --    0.13308   0.15472   0.19981   0.21611   0.54012
 Alpha virt. eigenvalues --    0.54803   0.57073   0.58070   0.66506   0.71367
 Alpha virt. eigenvalues --    0.78713   0.79663   0.79790   0.80763   0.82708

 Mulliken charges:
               1
     1  O   -0.508798
     2  H    0.251843
     3  H    0.257879
     4  O   -0.509956
     5  H    0.248703
     6  H    0.260330
 Sum of Mulliken charges =  -0.00000

 Dipole moment (field-independent basis, Debye):
    X=             -1.9115    Y=             -1.6455    Z=              0.0000  Tot=              2.5222
 Quadrupole moment (field-independent basis, Debye-Ang):
   XX=             -9.7823   YY=              0.7108   ZZ=            -14.7143
   XY=             -4.2693   XZ=              0.0000   YZ=              0.0000

 Normal termination of Gaussian 16 at Fri Aug 26 16:15:32 2022.
