 Gaussian 16, Revision A.03,
 Gaussian 16:  ES64L-G16RevA.03 25-Dec-2016

 ------------------
 #p CCSD(T)/cc-pVTZ
 ------------------

 -----------
 H2O_H2O_179
 -----------
 Symbolic Z-matrix:
 Charge =  0 Multiplicity = 1

                         Standard orientation:
 ---------------------------------------------------------------------
 Center     Atomic      Atomic             Coordinates (Angstroms)
 Number     Number       Type             X           Y           Z
 ---------------------------------------------------------------------
      1          8           0        0.014785   -0.894578    0.000000
      2          1           0       -0.785596   -1.464575    0.000000
      3          1           0        0.813544   -1.466845    0.000000
      4          8           0        0.014785    0.898428    0.000000
      5          1           0        0.640368    1.656157    0.000000
      6          1           0       -0.904872    1.244461    0.000000
 ---------------------------------------------------------------------

 SCF Done:  E(RHF) =  -151.997323113     A.U. after   11 cycles
 E2 =    -0.5420220707D+00 EUMP2 =    -0.15253934518390D+03
 CCSD(T)
 CCSD(T)= -0.15256528010D+03

 The electronic state is 1-A'.
 Alpha  occ. eigenvalues --  -20.51385 -20.51273  -1.33837  -1.27532  -0.69592
 Alpha  occ. eigenvalues --   -0.66473  -0.63684  -0.50655  -0.43836  -0.38524
 Alpha virt. eigenvalues --    0.14591   0.18997   0.20169   0.23092   0.51018
 Alpha virt. eigenvalues --    0.58694   0.59131   0.66617   0.68785   0.78926
 Alpha virt. eigenvalues --    0.79962   0.83707   0.84175   0.86302   0.87888

 Mulliken charges:
               1
     1  O   -0.396549
     2  H    0.191918
     3  H    0.204210
     4  O   -0.384650
     5  H    0.169728
     6  H    0.215343
 Sum of Mulliken charges =  -0.00000

 Dipole moment (field-independent basis, Debye):
    X=             -0.4208    Y=             -0.0929    Z=              0.0000  Tot=              0.4309
 Quadrupole moment (field-independent basis, Debye-Ang):
   XX=             -8.4186   YY=             -7.3932   ZZ=            -14.7532
   XY=             -0.1582   XZ=              0.0000   YZ=              0.0000

 Normal termination of Gaussian 16 at Fri Aug 26 13:41:28 2022.
