 Gaussian 16, Revision A.03,
 Gaussian 16:  ES64L-G16RevA.03 25-Dec-2016

 ------------------
 #p CCSD(T)/cc-pVTZ
 ------------------

 ------------
 H2O_H2O_1704
 ------------
 Symbolic Z-matrix:
 Charge =  0 Multiplicity = 1

                         Standard orientation:
 ---------------------------------------------------------------------
 Center     Atomic      Atomic             Coordinates (Angstroms)
 Number     Number       Type             X           Y           Z
 ---------------------------------------------------------------------
      1          8           0        0.014783   -1.705619    0.000000
      2          1           0       -0.785213   -2.276155    0.000000
      3          1           0        0.813929   -2.277347    0.000000
      4          8           0        0.014783    1.709489    0.000000
      5          1           0        0.639856    2.467639    0.000000
      6          1           0       -0.905106    2.054901    0.000000
 ---------------------------------------------------------------------

 SCF Done:  E(RHF) =  -152.103830856     A.U. after   10 cycles
 E2 =    -0.5267563124D+00 EUMP2 =    -0.15263058716831D+03
 CCSD(T)
 CCSD(T)= -0.15265784531D+03

 The electronic state is 1-A'.
 Alpha  occ. eigenvalues --  -20.54283 -20.54204  -1.31578  -1.31467  -0.69001
 Alpha  occ. eigenvalues --   -0.68894  -0.55360  -0.54160  -0.48718  -0.48510
 Alpha virt. eigenvalues --    0.14223   0.16216   0.20572   0.21533   0.53014
 Alpha virt. eigenvalues --    0.57562   0.58077   0.58477   0.61964   0.76165
 Alpha virt. eigenvalues --    0.78801   0.79043   0.80127   0.81476   0.84396

 Mulliken charges:
               1
     1  O   -0.483374
     2  H    0.240022
     3  H    0.243510
     4  O   -0.483281
     5  H    0.239646
     6  H    0.243477
 Sum of Mulliken charges =  -0.00000

 Dipole moment (field-independent basis, Debye):
    X=             -0.4924    Y=             -0.0721    Z=              0.0000  Tot=              0.4976
 Quadrupole moment (field-independent basis, Debye-Ang):
   XX=             -7.9977   YY=              1.3023   ZZ=            -14.7091
   XY=             -0.4377   XZ=              0.0000   YZ=              0.0000

 2065\MP4DQ=-152.6395843\MP4SDQ=-152.6426978\CCSD=-152.6420866\CCSD(T)=
 Normal termination of Gaussian 16 at Sat Aug 27 06:18:54 2022.
