 Gaussian 16, Revision A.03,
 Gaussian 16:  ES64L-G16RevA.03 25-Dec-2016

 ------------------
 #p CCSD(T)/cc-pVTZ
 ------------------

 ------------
 H2O_H2O_1255
 ------------
 Symbolic Z-matrix:
 Charge =  0 Multiplicity = 1

                         Standard orientation:
 ---------------------------------------------------------------------
 Center     Atomic      Atomic             Coordinates (Angstroms)
 Number     Number       Type             X           Y           Z
 ---------------------------------------------------------------------
      1          8           0        0.018362   -1.465123    0.000000
      2          1           0       -0.781824   -2.035394    0.000000
      3          1           0        0.817317   -2.037116    0.000000
      4          8           0        0.018362    1.471146    0.000000
      5          1           0        0.592774    2.268364    0.000000
      6          1           0       -0.922054    1.755966    0.000000
 ---------------------------------------------------------------------

 SCF Done:  E(RHF) =  -152.101042112     A.U. after   11 cycles
 E2 =    -0.5275433723D+00 EUMP2 =    -0.15262858548407D+03
 CCSD(T)
 CCSD(T)= -0.15265587924D+03

 The electronic state is 1-A'.
 Alpha  occ. eigenvalues --  -20.53888 -20.53738  -1.31289  -1.30967  -0.68696
 Alpha  occ. eigenvalues --   -0.68428  -0.55746  -0.52786  -0.48494  -0.47915
 Alpha virt. eigenvalues --    0.14335   0.16804   0.20530   0.21997   0.51794
 Alpha virt. eigenvalues --    0.58373   0.58662   0.59935   0.67302   0.76513
 Alpha virt. eigenvalues --    0.77500   0.78493   0.79052   0.82890   0.86080

 Mulliken charges:
               1
     1  O   -0.472602
     2  H    0.233064
     3  H    0.239569
     4  O   -0.469862
     5  H    0.231801
     6  H    0.238030
 Sum of Mulliken charges =  -0.00000

 Dipole moment (field-independent basis, Debye):
    X=             -0.5978    Y=             -0.1140    Z=              0.0000  Tot=              0.6086
 Quadrupole moment (field-independent basis, Debye-Ang):
   XX=             -8.1123   YY=             -0.8245   ZZ=            -14.7119
   XY=             -0.4139   XZ=              0.0000   YZ=              0.0000

 Normal termination of Gaussian 16 at Sat Aug 27 03:24:20 2022.
