 Gaussian 16, Revision A.03,
 Gaussian 16:  ES64L-G16RevA.03 25-Dec-2016

 ------------------
 #p CCSD(T)/cc-pVTZ
 ------------------

 ------------
 H2O_H2O_4394
 ------------
 Symbolic Z-matrix:
 Charge =  0 Multiplicity = 1

                         Standard orientation:
 ---------------------------------------------------------------------
 Center     Atomic      Atomic             Coordinates (Angstroms)
 Number     Number       Type             X           Y           Z
 ---------------------------------------------------------------------
      1          8           0        0.054140   -3.088376    0.000000
      2          1           0       -0.746281   -3.658317    0.000000
      3          1           0        0.852860   -3.660698    0.000000
      4          8           0        0.054140    3.165725    0.000000
      5          1           0       -0.228268    4.106869    0.000000
      6          1           0       -0.744549    2.593359    0.000000
 ---------------------------------------------------------------------

 SCF Done:  E(RHF) =  -152.107424611     A.U. after   10 cycles
 E2 =    -0.5258797880D+00 EUMP2 =    -0.15263330439847D+03
 CCSD(T)
 CCSD(T)= -0.15266052400D+03

 The electronic state is 1-A'.
 Alpha  occ. eigenvalues --  -20.55600 -20.55142  -1.32899  -1.32439  -0.70305
 Alpha  occ. eigenvalues --   -0.69839  -0.56347  -0.55885  -0.50010  -0.49553
 Alpha virt. eigenvalues --    0.14064   0.14546   0.20151   0.20644   0.54255
 Alpha virt. eigenvalues --    0.54736   0.57176   0.57635   0.67814   0.68339
 Alpha virt. eigenvalues --    0.78870   0.79320   0.80300   0.80781   0.82239

 Mulliken charges:
               1
     1  O   -0.508995
     2  H    0.253279
     3  H    0.255717
     4  O   -0.508708
     5  H    0.252057
     6  H    0.256650
 Sum of Mulliken charges =  -0.00000

 Dipole moment (field-independent basis, Debye):
    X=             -1.8606    Y=             -1.3521    Z=              0.0000  Tot=              2.3000
 Quadrupole moment (field-independent basis, Debye-Ang):
   XX=             -9.6487   YY=              6.2511   ZZ=            -14.7121
   XY=             -5.4410   XZ=              0.0000   YZ=              0.0000

 Normal termination of Gaussian 16 at Sat Aug 27 07:04:54 2022.
