 Gaussian 16, Revision A.03,
 Gaussian 16:  ES64L-G16RevA.03 25-Dec-2016

 ------------------
 #p CCSD(T)/cc-pVTZ
 ------------------

 ------------
 H2O_H2O_3346
 ------------
 Symbolic Z-matrix:
 Charge =  0 Multiplicity = 1

                         Standard orientation:
 ---------------------------------------------------------------------
 Center     Atomic      Atomic             Coordinates (Angstroms)
 Number     Number       Type             X           Y           Z
 ---------------------------------------------------------------------
      1          8           0        0.056102   -2.522136    0.000000
      2          1           0       -0.744540   -3.091766    0.000000
      3          1           0        0.854599   -3.094769    0.000000
      4          8           0        0.056102    2.613868    0.000000
      5          1           0       -0.346385    3.510255    0.000000
      6          1           0       -0.661307    1.942429    0.000000
 ---------------------------------------------------------------------

 SCF Done:  E(RHF) =  -152.107662347     A.U. after   10 cycles
 E2 =    -0.5259091005D+00 EUMP2 =    -0.15263357144766D+03
 CCSD(T)
 CCSD(T)= -0.15266078090D+03

 The electronic state is 1-A'.
 Alpha  occ. eigenvalues --  -20.55712 -20.54873  -1.33009  -1.32171  -0.70415
 Alpha  occ. eigenvalues --   -0.69562  -0.56466  -0.55621  -0.50122  -0.49288
 Alpha virt. eigenvalues --    0.13664   0.15024   0.20041   0.21080   0.54100
 Alpha virt. eigenvalues --    0.54913   0.57089   0.57836   0.67065   0.69439
 Alpha virt. eigenvalues --    0.78763   0.79575   0.80056   0.80523   0.82754

 Mulliken charges:
               1
     1  O   -0.510012
     2  H    0.252906
     3  H    0.257289
     4  O   -0.509576
     5  H    0.250379
     6  H    0.259015
 Sum of Mulliken charges =  -0.00000

 Dipole moment (field-independent basis, Debye):
    X=             -1.9202    Y=             -1.6231    Z=              0.0000  Tot=              2.5143
 Quadrupole moment (field-independent basis, Debye-Ang):
   XX=             -9.7828   YY=              2.1120   ZZ=            -14.7131
   XY=             -4.8237   XZ=              0.0000   YZ=              0.0000

 Normal termination of Gaussian 16 at Fri Aug 26 21:33:52 2022.
