 Gaussian 16, Revision A.03,
 Gaussian 16:  ES64L-G16RevA.03 25-Dec-2016

 ------------------
 #p CCSD(T)/cc-pVTZ
 ------------------

 ------------
 H2O_H2O_3086
 ------------
 Symbolic Z-matrix:
 Charge =  0 Multiplicity = 1

                         Standard orientation:
 ---------------------------------------------------------------------
 Center     Atomic      Atomic             Coordinates (Angstroms)
 Number     Number       Type             X           Y           Z
 ---------------------------------------------------------------------
      1          8           0        0.037676   -2.423655    0.000000
      2          1           0       -0.762654   -2.993723    0.000000
      3          1           0        0.836487   -2.995849    0.000000
      4          8           0        0.037676    2.451901    0.000000
      5          1           0        0.263524    3.408195    0.000000
      6          1           0       -0.940177    2.355407    0.000000
 ---------------------------------------------------------------------

 SCF Done:  E(RHF) =  -152.106531325     A.U. after   10 cycles
 E2 =    -0.5260053511D+00 EUMP2 =    -0.15263253667578D+03
 CCSD(T)
 CCSD(T)= -0.15265977188D+03

 The electronic state is 1-A'.
 Alpha  occ. eigenvalues --  -20.55141 -20.54862  -1.32435  -1.32153  -0.69845
 Alpha  occ. eigenvalues --   -0.69554  -0.55840  -0.55558  -0.49540  -0.49260
 Alpha virt. eigenvalues --    0.14184   0.14983   0.20421   0.20869   0.54604
 Alpha virt. eigenvalues --    0.55061   0.57560   0.57842   0.67134   0.70167
 Alpha virt. eigenvalues --    0.79334   0.79615   0.80723   0.81152   0.82749

 Mulliken charges:
               1
     1  O   -0.503691
     2  H    0.250087
     3  H    0.253641
     4  O   -0.503293
     5  H    0.249061
     6  H    0.254196
 Sum of Mulliken charges =  -0.00000

 Dipole moment (field-independent basis, Debye):
    X=             -1.2866    Y=             -0.4997    Z=              0.0000  Tot=              1.3802
 Quadrupole moment (field-independent basis, Debye-Ang):
   XX=             -8.7020   YY=              5.8826   ZZ=            -14.7107
   XY=             -2.3218   XZ=              0.0000   YZ=              0.0000

 Normal termination of Gaussian 16 at Fri Aug 26 19:17:34 2022.
