 Gaussian 16, Revision A.03,
 Gaussian 16:  ES64L-G16RevA.03 25-Dec-2016

 ------------------
 #p CCSD(T)/cc-pVTZ
 ------------------

 ------------
 H2O_H2O_1583
 ------------
 Symbolic Z-matrix:
 Charge =  0 Multiplicity = 1

                         Standard orientation:
 ---------------------------------------------------------------------
 Center     Atomic      Atomic             Coordinates (Angstroms)
 Number     Number       Type             X           Y           Z
 ---------------------------------------------------------------------
      1          8           0        0.028568   -1.632975    0.000000
      2          1           0       -0.771858   -2.202909    0.000000
      3          1           0        0.827282   -2.205305    0.000000
      4          8           0        0.028568    1.648193    0.000000
      5          1           0        0.436792    2.541983    0.000000
      6          1           0       -0.949304    1.744488    0.000000
 ---------------------------------------------------------------------

 SCF Done:  E(RHF) =  -152.103887431     A.U. after   10 cycles
 E2 =    -0.5269097074D+00 EUMP2 =    -0.15263079713807D+03
 CCSD(T)
 CCSD(T)= -0.15265804655D+03

 The electronic state is 1-A'.
 Alpha  occ. eigenvalues --  -20.54408 -20.54074  -1.31700  -1.31337  -0.69126
 Alpha  occ. eigenvalues --   -0.68752  -0.55488  -0.54037  -0.48827  -0.48398
 Alpha virt. eigenvalues --    0.14109   0.16396   0.20467   0.21811   0.52832
 Alpha virt. eigenvalues --    0.57131   0.58080   0.58634   0.63719   0.76931
 Alpha virt. eigenvalues --    0.78378   0.78675   0.79584   0.81791   0.85394

 Mulliken charges:
               1
     1  O   -0.482540
     2  H    0.237881
     3  H    0.245352
     4  O   -0.481831
     5  H    0.236163
     6  H    0.244974
 Sum of Mulliken charges =  -0.00000

 Dipole moment (field-independent basis, Debye):
    X=             -0.9459    Y=             -0.2851    Z=              0.0000  Tot=              0.9879
 Quadrupole moment (field-independent basis, Debye-Ang):
   XX=             -8.3725   YY=              0.4570   ZZ=            -14.7104
   XY=             -0.8834   XZ=              0.0000   YZ=              0.0000

 Normal termination of Gaussian 16 at Sat Aug 27 05:36:18 2022.
