 Gaussian 16, Revision A.03,
 Gaussian 16:  ES64L-G16RevA.03 25-Dec-2016

 ------------------
 #p CCSD(T)/cc-pVTZ
 ------------------

 ------------
 H2O_H2O_2180
 ------------
 Symbolic Z-matrix:
 Charge =  0 Multiplicity = 1

                         Standard orientation:
 ---------------------------------------------------------------------
 Center     Atomic      Atomic             Coordinates (Angstroms)
 Number     Number       Type             X           Y           Z
 ---------------------------------------------------------------------
      1          8           0        0.018361   -1.957066    0.000000
      2          1           0       -0.781670   -2.527554    0.000000
      3          1           0        0.817471   -2.528843    0.000000
      4          8           0        0.018361    1.963099    0.000000
      5          1           0        0.592558    2.760472    0.000000
      6          1           0       -0.922132    2.247666    0.000000
 ---------------------------------------------------------------------

 SCF Done:  E(RHF) =  -152.105149230     A.U. after   10 cycles
 E2 =    -0.5263298174D+00 EUMP2 =    -0.15263147904717D+03
 CCSD(T)
 CCSD(T)= -0.15265872417D+03

 The electronic state is 1-A'.
 Alpha  occ. eigenvalues --  -20.54607 -20.54512  -1.31890  -1.31792  -0.69308
 Alpha  occ. eigenvalues --   -0.69206  -0.55374  -0.54943  -0.48995  -0.48883
 Alpha virt. eigenvalues --    0.14141   0.15702   0.20584   0.21197   0.54071
 Alpha virt. eigenvalues --    0.56139   0.57899   0.58185   0.62327   0.74943
 Alpha virt. eigenvalues --    0.79452   0.80383   0.80454   0.81179   0.82321

 Mulliken charges:
               1
     1  O   -0.493765
     2  H    0.245405
     3  H    0.248462
     4  O   -0.493638
     5  H    0.244899
     6  H    0.248636
 Sum of Mulliken charges =  -0.00000

 Dipole moment (field-independent basis, Debye):
    X=             -0.6195    Y=             -0.1097    Z=              0.0000  Tot=              0.6292
 Quadrupole moment (field-independent basis, Debye-Ang):
   XX=             -8.0471   YY=              3.3203   ZZ=            -14.7096
   XY=             -0.7094   XZ=              0.0000   YZ=              0.0000

 Normal termination of Gaussian 16 at Sat Aug 27 09:04:00 2022.
