 Gaussian 16, Revision A.03,
 Gaussian 16:  ES64L-G16RevA.03 25-Dec-2016

 ------------------
 #p CCSD(T)/cc-pVTZ
 ------------------

 ------------
 H2O_H2O_3262
 ------------
 Symbolic Z-matrix:
 Charge =  0 Multiplicity = 1

                         Standard orientation:
 ---------------------------------------------------------------------
 Center     Atomic      Atomic             Coordinates (Angstroms)
 Number     Number       Type             X           Y           Z
 ---------------------------------------------------------------------
      1          8           0        0.040408   -2.513957    0.000000
      2          1           0       -0.759947   -3.083990    0.000000
      3          1           0        0.839194   -3.086187    0.000000
      4          8           0        0.040408    2.547302    0.000000
      5          1           0        0.203270    3.516313    0.000000
      6          1           0       -0.929047    2.387103    0.000000
 ---------------------------------------------------------------------

 SCF Done:  E(RHF) =  -152.106703187     A.U. after   10 cycles
 E2 =    -0.5259782299D+00 EUMP2 =    -0.15263268141721D+03
 CCSD(T)
 CCSD(T)= -0.15265991394D+03

 The electronic state is 1-A'.
 Alpha  occ. eigenvalues --  -20.55218 -20.54912  -1.32513  -1.32204  -0.69921
 Alpha  occ. eigenvalues --   -0.69604  -0.55926  -0.55618  -0.49619  -0.49312
 Alpha virt. eigenvalues --    0.14192   0.14883   0.20387   0.20822   0.54581
 Alpha virt. eigenvalues --    0.54992   0.57500   0.57805   0.67487   0.69580
 Alpha virt. eigenvalues --    0.79259   0.79561   0.80666   0.81049   0.82741

 Mulliken charges:
               1
     1  O   -0.504731
     2  H    0.250659
     3  H    0.254097
     4  O   -0.504345
     5  H    0.249588
     6  H    0.254732
 Sum of Mulliken charges =  -0.00000

 Dipole moment (field-independent basis, Debye):
    X=             -1.3817    Y=             -0.5885    Z=              0.0000  Tot=              1.5018
 Quadrupole moment (field-independent basis, Debye-Ang):
   XX=             -8.8341   YY=              6.2180   ZZ=            -14.7109
   XY=             -2.6817   XZ=              0.0000   YZ=              0.0000

 Normal termination of Gaussian 16 at Fri Aug 26 20:49:55 2022.
