 Gaussian 16, Revision A.03,
 Gaussian 16:  ES64L-G16RevA.03 25-Dec-2016

 ------------------
 #p CCSD(T)/cc-pVTZ
 ------------------

 ------------
 H2O_H2O_4312
 ------------
 Symbolic Z-matrix:
 Charge =  0 Multiplicity = 1

                         Standard orientation:
 ---------------------------------------------------------------------
 Center     Atomic      Atomic             Coordinates (Angstroms)
 Number     Number       Type             X           Y           Z
 ---------------------------------------------------------------------
      1          8           0        0.040404   -3.072375    0.000000
      2          1           0       -0.759809   -3.642607    0.000000
      3          1           0        0.839332   -3.644406    0.000000
      4          8           0        0.040404    3.105740    0.000000
      5          1           0        0.203026    4.074791    0.000000
      6          1           0       -0.929011    2.945300    0.000000
 ---------------------------------------------------------------------

 SCF Done:  E(RHF) =  -152.107045252     A.U. after   10 cycles
 E2 =    -0.5259134053D+00 EUMP2 =    -0.15263295865698D+03
 CCSD(T)
 CCSD(T)= -0.15266018635D+03

 The electronic state is 1-A'.
 Alpha  occ. eigenvalues --  -20.55354 -20.55152  -1.32651  -1.32447  -0.70058
 Alpha  occ. eigenvalues --   -0.69850  -0.56081  -0.55878  -0.49760  -0.49557
 Alpha virt. eigenvalues --    0.14284   0.14502   0.20347   0.20563   0.54507
 Alpha virt. eigenvalues --    0.54727   0.57394   0.57598   0.68116   0.68362
 Alpha virt. eigenvalues --    0.79120   0.79319   0.80558   0.80778   0.82486

 Mulliken charges:
               1
     1  O   -0.506742
     2  H    0.252397
     3  H    0.254345
     4  O   -0.506575
     5  H    0.251759
     6  H    0.254816
 Sum of Mulliken charges =  -0.00000

 Dipole moment (field-independent basis, Debye):
    X=             -1.3879    Y=             -0.5830    Z=              0.0000  Tot=              1.5054
 Quadrupole moment (field-independent basis, Debye-Ang):
   XX=             -8.8305   YY=             10.0518   ZZ=            -14.7112
   XY=             -3.4479   XZ=              0.0000   YZ=              0.0000

 Normal termination of Gaussian 16 at Sat Aug 27 06:36:24 2022.
