 Gaussian 16, Revision A.03,
 Gaussian 16:  ES64L-G16RevA.03 25-Dec-2016

 ------------------
 #p CCSD(T)/cc-pVTZ
 ------------------

 ------------
 H2O_H2O_1276
 ------------
 Symbolic Z-matrix:
 Charge =  0 Multiplicity = 1

                         Standard orientation:
 ---------------------------------------------------------------------
 Center     Atomic      Atomic             Coordinates (Angstroms)
 Number     Number       Type             X           Y           Z
 ---------------------------------------------------------------------
      1          8           0        0.003735   -1.481558    0.000000
      2          1           0       -0.795960   -2.052517    0.000000
      3          1           0        0.803182   -2.052864    0.000000
      4          8           0        0.003735    1.481802    0.000000
      5          1           0        0.764376    2.103840    0.000000
      6          1           0       -0.831365    1.999597    0.000000
 ---------------------------------------------------------------------

 SCF Done:  E(RHF) =  -152.100853374     A.U. after   10 cycles
 E2 =    -0.5274825565D+00 EUMP2 =    -0.15262833593069D+03
 CCSD(T)
 CCSD(T)= -0.15265563990D+03

 The electronic state is 1-A'.
 Alpha  occ. eigenvalues --  -20.53779 -20.53773  -1.31220  -1.30967  -0.68624
 Alpha  occ. eigenvalues --   -0.68436  -0.55686  -0.52753  -0.48428  -0.47907
 Alpha virt. eigenvalues --    0.14410   0.16780   0.20568   0.21885   0.51489
 Alpha virt. eigenvalues --    0.58354   0.58686   0.60296   0.66786   0.76184
 Alpha virt. eigenvalues --    0.77648   0.77916   0.79217   0.82845   0.86168

 Mulliken charges:
               1
     1  O   -0.471028
     2  H    0.234851
     3  H    0.236178
     4  O   -0.470909
     5  H    0.234911
     6  H    0.235998
 Sum of Mulliken charges =  -0.00000

 Dipole moment (field-independent basis, Debye):
    X=             -0.1219    Y=             -0.0046    Z=              0.0000  Tot=              0.1220
 Quadrupole moment (field-independent basis, Debye-Ang):
   XX=             -7.9126   YY=             -0.6117   ZZ=            -14.7109
   XY=             -0.0792   XZ=              0.0000   YZ=              0.0000

 Normal termination of Gaussian 16 at Sat Aug 27 03:33:40 2022.
