 Gaussian 16, Revision A.03,
 Gaussian 16:  ES64L-G16RevA.03 25-Dec-2016

 ------------------
 #p CCSD(T)/cc-pVTZ
 ------------------

 ------------
 H2O_H2O_1557
 ------------
 Symbolic Z-matrix:
 Charge =  0 Multiplicity = 1

                         Standard orientation:
 ---------------------------------------------------------------------
 Center     Atomic      Atomic             Coordinates (Angstroms)
 Number     Number       Type             X           Y           Z
 ---------------------------------------------------------------------
      1          8           0        0.025268   -1.621583    0.000000
      2          1           0       -0.775065   -2.191647    0.000000
      3          1           0        0.824076   -2.193783    0.000000
      4          8           0        0.025268    1.633296    0.000000
      5          1           0        0.490933    2.498549    0.000000
      6          1           0       -0.944238    1.793183    0.000000
 ---------------------------------------------------------------------

 SCF Done:  E(RHF) =  -152.103579203     A.U. after   10 cycles
 E2 =    -0.5269507955D+00 EUMP2 =    -0.15263052999835D+03
 CCSD(T)
 CCSD(T)= -0.15265778665D+03

 The electronic state is 1-A'.
 Alpha  occ. eigenvalues --  -20.54317 -20.54059  -1.31615  -1.31321  -0.69040
 Alpha  occ. eigenvalues --   -0.68742  -0.55475  -0.53919  -0.48751  -0.48368
 Alpha virt. eigenvalues --    0.14163   0.16416   0.20496   0.21780   0.52715
 Alpha virt. eigenvalues --    0.57502   0.58128   0.58642   0.63708   0.76834
 Alpha virt. eigenvalues --    0.78348   0.78614   0.79576   0.81889   0.85481

 Mulliken charges:
               1
     1  O   -0.481229
     2  H    0.237483
     3  H    0.244264
     4  O   -0.480377
     5  H    0.236108
     6  H    0.243751
 Sum of Mulliken charges =  -0.00000

 Dipole moment (field-independent basis, Debye):
    X=             -0.8360    Y=             -0.2196    Z=              0.0000  Tot=              0.8643
 Quadrupole moment (field-independent basis, Debye-Ang):
   XX=             -8.2658   YY=              0.4363   ZZ=            -14.7101
   XY=             -0.7431   XZ=              0.0000   YZ=              0.0000

 Normal termination of Gaussian 16 at Sat Aug 27 05:27:28 2022.
