 Gaussian 16, Revision A.03,
 Gaussian 16:  ES64L-G16RevA.03 25-Dec-2016

 ------------------
 #p CCSD(T)/cc-pVTZ
 ------------------

 ------------
 H2O_H2O_3561
 ------------
 Symbolic Z-matrix:
 Charge =  0 Multiplicity = 1

                         Standard orientation:
 ---------------------------------------------------------------------
 Center     Atomic      Atomic             Coordinates (Angstroms)
 Number     Number       Type             X           Y           Z
 ---------------------------------------------------------------------
      1          8           0        0.037674   -2.676272    0.000000
      2          1           0       -0.762584   -3.246440    0.000000
      3          1           0        0.836557   -3.248367    0.000000
      4          8           0        0.037674    2.704528    0.000000
      5          1           0        0.263403    3.660850    0.000000
      6          1           0       -0.940167    2.607912    0.000000
 ---------------------------------------------------------------------

 SCF Done:  E(RHF) =  -152.106760469     A.U. after   10 cycles
 E2 =    -0.5259568534D+00 EUMP2 =    -0.15263271732241D+03
 CCSD(T)
 CCSD(T)= -0.15265994992D+03

 The electronic state is 1-A'.
 Alpha  occ. eigenvalues --  -20.55226 -20.54998  -1.32521  -1.32292  -0.69929
 Alpha  occ. eigenvalues --   -0.69694  -0.55938  -0.55709  -0.49628  -0.49400
 Alpha virt. eigenvalues --    0.14298   0.14712   0.20413   0.20705   0.54618
 Alpha virt. eigenvalues --    0.54897   0.57498   0.57731   0.67924   0.68937
 Alpha virt. eigenvalues --    0.79251   0.79475   0.80687   0.80940   0.82660

 Mulliken charges:
               1
     1  O   -0.505082
     2  H    0.251195
     3  H    0.253892
     4  O   -0.504806
     5  H    0.250391
     6  H    0.254409
 Sum of Mulliken charges =  -0.00000

 Dipole moment (field-independent basis, Debye):
    X=             -1.2904    Y=             -0.4966    Z=              0.0000  Tot=              1.3827
 Quadrupole moment (field-independent basis, Debye-Ang):
   XX=             -8.6990   YY=              7.6708   ZZ=            -14.7109
   XY=             -2.6437   XZ=              0.0000   YZ=              0.0000

 Normal termination of Gaussian 16 at Sat Aug 27 01:30:59 2022.
