 Gaussian 16, Revision A.03,
 Gaussian 16:  ES64L-G16RevA.03 25-Dec-2016

 ------------------
 #p CCSD(T)/cc-pVTZ
 ------------------

 ------------
 H2O_H2O_4098
 ------------
 Symbolic Z-matrix:
 Charge =  0 Multiplicity = 1

                         Standard orientation:
 ---------------------------------------------------------------------
 Center     Atomic      Atomic             Coordinates (Angstroms)
 Number     Number       Type             X           Y           Z
 ---------------------------------------------------------------------
      1          8           0        0.057079   -2.912958    0.000000
      2          1           0       -0.743435   -3.482767    0.000000
      3          1           0        0.855704   -3.485412    0.000000
      4          8           0        0.057079    3.019525    0.000000
      5          1           0       -0.459154    3.855593    0.000000
      6          1           0       -0.566382    2.260049    0.000000
 ---------------------------------------------------------------------

 SCF Done:  E(RHF) =  -152.107704920     A.U. after   10 cycles
 E2 =    -0.5258620578D+00 EUMP2 =    -0.15263356697774D+03
 CCSD(T)
 CCSD(T)= -0.15266078007D+03

 The electronic state is 1-A'.
 Alpha  occ. eigenvalues --  -20.55767 -20.55064  -1.33067  -1.32364  -0.70472
 Alpha  occ. eigenvalues --   -0.69760  -0.56528  -0.55817  -0.50180  -0.49479
 Alpha virt. eigenvalues --    0.13869   0.14676   0.20019   0.20792   0.54082
 Alpha virt. eigenvalues --    0.54803   0.57029   0.57721   0.67510   0.68493
 Alpha virt. eigenvalues --    0.78701   0.79388   0.80123   0.80748   0.82244

 Mulliken charges:
               1
     1  O   -0.510654
     2  H    0.253912
     3  H    0.256756
     4  O   -0.510169
     5  H    0.251995
     6  H    0.258159
 Sum of Mulliken charges =  -0.00000

 Dipole moment (field-independent basis, Debye):
    X=             -1.9602    Y=             -1.8679    Z=              0.0000  Tot=              2.7076
 Quadrupole moment (field-independent basis, Debye-Ang):
   XX=             -9.8546   YY=              2.5281   ZZ=            -14.7128
   XY=             -5.9473   XZ=              0.0000   YZ=              0.0000

 Normal termination of Gaussian 16 at Sat Aug 27 05:22:16 2022.
