 Gaussian 16, Revision A.03,
 Gaussian 16:  ES64L-G16RevA.03 25-Dec-2016

 ------------------
 #p CCSD(T)/cc-pVTZ
 ------------------

 -----------
 H2O_H2O_619
 -----------
 Symbolic Z-matrix:
 Charge =  0 Multiplicity = 1

                         Standard orientation:
 ---------------------------------------------------------------------
 Center     Atomic      Atomic             Coordinates (Angstroms)
 Number     Number       Type             X           Y           Z
 ---------------------------------------------------------------------
      1          8           0        0.054243   -1.080845    0.000000
      2          1           0       -0.747696   -1.648646    0.000000
      3          1           0        0.851432   -1.655297    0.000000
      4          8           0        0.054243    1.157904    0.000000
      5          1           0       -0.225651    2.099799    0.000000
      6          1           0       -0.745972    0.587673    0.000000
 ---------------------------------------------------------------------

 SCF Done:  E(RHF) =  -152.085337557     A.U. after   11 cycles
 E2 =    -0.5323195982D+00 EUMP2 =    -0.15261765715505D+03
 CCSD(T)
 CCSD(T)= -0.15264456657D+03

 The electronic state is 1-A'.
 Alpha  occ. eigenvalues --  -20.55414 -20.51777  -1.33902  -1.29092  -0.71285
 Alpha  occ. eigenvalues --   -0.68544  -0.55331  -0.51639  -0.50829  -0.46055
 Alpha virt. eigenvalues --    0.13464   0.18263   0.19663   0.25036   0.51505
 Alpha virt. eigenvalues --    0.56585   0.60474   0.62256   0.71770   0.74416
 Alpha virt. eigenvalues --    0.78449   0.82710   0.84098   0.84403   0.87530

 Mulliken charges:
               1
     1  O   -0.440755
     2  H    0.218540
     3  H    0.241067
     4  O   -0.471706
     5  H    0.199727
     6  H    0.253126
 Sum of Mulliken charges =  -0.00000

 Dipole moment (field-independent basis, Debye):
    X=             -1.6379    Y=             -1.6178    Z=              0.0000  Tot=              2.3021
 Quadrupole moment (field-independent basis, Debye-Ang):
   XX=             -9.7005   YY=             -5.2578   ZZ=            -14.7089
   XY=             -1.8027   XZ=              0.0000   YZ=              0.0000

 Normal termination of Gaussian 16 at Fri Aug 26 18:18:01 2022.
