 Gaussian 16, Revision A.03,
 Gaussian 16:  ES64L-G16RevA.03 25-Dec-2016

 ------------------
 #p CCSD(T)/cc-pVTZ
 ------------------

 ------------
 H2O_H2O_3433
 ------------
 Symbolic Z-matrix:
 Charge =  0 Multiplicity = 1

                         Standard orientation:
 ---------------------------------------------------------------------
 Center     Atomic      Atomic             Coordinates (Angstroms)
 Number     Number       Type             X           Y           Z
 ---------------------------------------------------------------------
      1          8           0        0.028564   -2.616856    0.000000
      2          1           0       -0.771542   -3.187239    0.000000
      3          1           0        0.827599   -3.188737    0.000000
      4          8           0        0.028564    2.632106    0.000000
      5          1           0        0.436285    3.526125    0.000000
      6          1           0       -0.949362    2.727851    0.000000
 ---------------------------------------------------------------------

 SCF Done:  E(RHF) =  -152.106529227     A.U. after   10 cycles
 E2 =    -0.5259804172D+00 EUMP2 =    -0.15263250964393D+03
 CCSD(T)
 CCSD(T)= -0.15265974699D+03

 The electronic state is 1-A'.
 Alpha  occ. eigenvalues --  -20.55103 -20.54975  -1.32398  -1.32268  -0.69807
 Alpha  occ. eigenvalues --   -0.69673  -0.55804  -0.55674  -0.49503  -0.49374
 Alpha virt. eigenvalues --    0.14377   0.14744   0.20497   0.20697   0.54729
 Alpha virt. eigenvalues --    0.54931   0.57600   0.57741   0.67883   0.69177
 Alpha virt. eigenvalues --    0.79374   0.79501   0.80811   0.80976   0.82747

 Mulliken charges:
               1
     1  O   -0.503712
     2  H    0.250763
     3  H    0.252952
     4  O   -0.503515
     5  H    0.250224
     6  H    0.253288
 Sum of Mulliken charges =  -0.00000

 Dipole moment (field-independent basis, Debye):
    X=             -0.9776    Y=             -0.2683    Z=              0.0000  Tot=              1.0137
 Quadrupole moment (field-independent basis, Debye-Ang):
   XX=             -8.3219   YY=              8.0357   ZZ=            -14.7104
   XY=             -1.8236   XZ=              0.0000   YZ=              0.0000

 Normal termination of Gaussian 16 at Fri Aug 26 22:17:35 2022.
