 Gaussian 16, Revision A.03,
 Gaussian 16:  ES64L-G16RevA.03 25-Dec-2016

 ------------------
 #p CCSD(T)/cc-pVTZ
 ------------------

 ------------
 H2O_H2O_4561
 ------------
 Symbolic Z-matrix:
 Charge =  0 Multiplicity = 1

                         Standard orientation:
 ---------------------------------------------------------------------
 Center     Atomic      Atomic             Coordinates (Angstroms)
 Number     Number       Type             X           Y           Z
 ---------------------------------------------------------------------
      1          8           0        0.037672   -3.208101    0.000000
      2          1           0       -0.762474   -3.778428    0.000000
      3          1           0        0.836668   -3.780037    0.000000
      4          8           0        0.037672    3.236371    0.000000
      5          1           0        0.263210    4.192739    0.000000
      6          1           0       -0.940150    3.139561    0.000000
 ---------------------------------------------------------------------

 SCF Done:  E(RHF) =  -152.107059265     A.U. after   10 cycles
 E2 =    -0.5259086272D+00 EUMP2 =    -0.15263296789221D+03
 CCSD(T)
 CCSD(T)= -0.15266019551D+03

 The electronic state is 1-A'.
 Alpha  occ. eigenvalues --  -20.55351 -20.55195  -1.32648  -1.32491  -0.70055
 Alpha  occ. eigenvalues --   -0.69894  -0.56080  -0.55922  -0.49757  -0.49600
 Alpha virt. eigenvalues --    0.14294   0.14455   0.20353   0.20518   0.54511
 Alpha virt. eigenvalues --    0.54680   0.57398   0.57556   0.68132   0.68301
 Alpha virt. eigenvalues --    0.79122   0.79277   0.80560   0.80731   0.82486

 Mulliken charges:
               1
     1  O   -0.506818
     2  H    0.252604
     3  H    0.254214
     4  O   -0.506695
     5  H    0.252098
     6  H    0.254598
 Sum of Mulliken charges =   0.00000

 Dipole moment (field-independent basis, Debye):
    X=             -1.2949    Y=             -0.4933    Z=              0.0000  Tot=              1.3856
 Quadrupole moment (field-independent basis, Debye-Ang):
   XX=             -8.6957   YY=             11.4093   ZZ=            -14.7112
   XY=             -3.3253   XZ=              0.0000   YZ=              0.0000

 Normal termination of Gaussian 16 at Sat Aug 27 08:03:39 2022.
