 Gaussian 16, Revision A.03,
 Gaussian 16:  ES64L-G16RevA.03 25-Dec-2016

 ------------------
 #p CCSD(T)/cc-pVTZ
 ------------------

 -----------
 H2O_H2O_897
 -----------
 Symbolic Z-matrix:
 Charge =  0 Multiplicity = 1

                         Standard orientation:
 ---------------------------------------------------------------------
 Center     Atomic      Atomic             Coordinates (Angstroms)
 Number     Number       Type             X           Y           Z
 ---------------------------------------------------------------------
      1          8           0        0.056816   -1.215251    0.000000
      2          1           0       -0.744951   -1.783297    0.000000
      3          1           0        0.854179   -1.789460    0.000000
      4          8           0        0.056816    1.314130    0.000000
      5          1           0       -0.401719    2.183182    0.000000
      6          1           0       -0.616559    0.598537    0.000000
 ---------------------------------------------------------------------

 SCF Done:  E(RHF) =  -152.101979234     A.U. after   10 cycles
 E2 =    -0.5298736700D+00 EUMP2 =    -0.15263185290421D+03
 CCSD(T)
 CCSD(T)= -0.15265880378D+03

 The electronic state is 1-A'.
 Alpha  occ. eigenvalues --  -20.56558 -20.52087  -1.34309  -1.29523  -0.71662
 Alpha  occ. eigenvalues --   -0.68217  -0.56344  -0.53090  -0.51331  -0.46593
 Alpha virt. eigenvalues --    0.13078   0.18088   0.19454   0.26078   0.51005
 Alpha virt. eigenvalues --    0.56202   0.59823   0.60914   0.71293   0.73697
 Alpha virt. eigenvalues --    0.75696   0.81949   0.82722   0.83774   0.86839

 Mulliken charges:
               1
     1  O   -0.465520
     2  H    0.235026
     3  H    0.253257
     4  O   -0.509118
     5  H    0.221344
     6  H    0.265011
 Sum of Mulliken charges =  -0.00000

 Dipole moment (field-independent basis, Debye):
    X=             -1.7856    Y=             -2.0777    Z=              0.0000  Tot=              2.7396
 Quadrupole moment (field-independent basis, Debye-Ang):
   XX=             -9.8321   YY=             -4.8856   ZZ=            -14.7193
   XY=             -2.5517   XZ=              0.0000   YZ=              0.0000

 79234\MP4DQ=-152.6400664\MP4SDQ=-152.643286\CCSD=-152.6426281\CCSD(T)=
 Normal termination of Gaussian 16 at Fri Aug 26 20:58:03 2022.
