 Gaussian 16, Revision A.03,
 Gaussian 16:  ES64L-G16RevA.03 25-Dec-2016

 ------------------
 #p CCSD(T)/cc-pVTZ
 ------------------

 ------------
 H2O_H2O_4594
 ------------
 Symbolic Z-matrix:
 Charge =  0 Multiplicity = 1

                         Standard orientation:
 ---------------------------------------------------------------------
 Center     Atomic      Atomic             Coordinates (Angstroms)
 Number     Number       Type             X           Y           Z
 ---------------------------------------------------------------------
      1          8           0        0.054138   -3.194741    0.000000
      2          1           0       -0.746254   -3.764721    0.000000
      3          1           0        0.852886   -3.767023    0.000000
      4          8           0        0.054138    3.272094    0.000000
      5          1           0       -0.228316    4.213225    0.000000
      6          1           0       -0.744523    2.699690    0.000000
 ---------------------------------------------------------------------

 SCF Done:  E(RHF) =  -152.107428433     A.U. after   10 cycles
 E2 =    -0.5258764194D+00 EUMP2 =    -0.15263330485195D+03
 CCSD(T)
 CCSD(T)= -0.15266052458D+03

 The electronic state is 1-A'.
 Alpha  occ. eigenvalues --  -20.55602 -20.55176  -1.32901  -1.32474  -0.70307
 Alpha  occ. eigenvalues --   -0.69874  -0.56349  -0.55920  -0.50013  -0.49587
 Alpha virt. eigenvalues --    0.14070   0.14506   0.20151   0.20605   0.54254
 Alpha virt. eigenvalues --    0.54700   0.57174   0.57602   0.67828   0.68287
 Alpha virt. eigenvalues --    0.78867   0.79287   0.80297   0.80750   0.82226

 Mulliken charges:
               1
     1  O   -0.509011
     2  H    0.253401
     3  H    0.255610
     4  O   -0.508760
     5  H    0.252293
     6  H    0.256466
 Sum of Mulliken charges =  -0.00000

 Dipole moment (field-independent basis, Debye):
    X=             -1.8614    Y=             -1.3505    Z=              0.0000  Tot=              2.2997
 Quadrupole moment (field-independent basis, Debye-Ang):
   XX=             -9.6488   YY=              6.8127   ZZ=            -14.7121
   XY=             -5.6376   XZ=              0.0000   YZ=              0.0000

 Normal termination of Gaussian 16 at Sat Aug 27 08:14:13 2022.
