 Gaussian 16, Revision A.03,
 Gaussian 16:  ES64L-G16RevA.03 25-Dec-2016

 ------------------
 #p CCSD(T)/cc-pVTZ
 ------------------

 ------------
 H2O_H2O_1619
 ------------
 Symbolic Z-matrix:
 Charge =  0 Multiplicity = 1

                         Standard orientation:
 ---------------------------------------------------------------------
 Center     Atomic      Atomic             Coordinates (Angstroms)
 Number     Number       Type             X           Y           Z
 ---------------------------------------------------------------------
      1          8           0        0.054191   -1.612605    0.000000
      2          1           0       -0.746987   -2.181481    0.000000
      3          1           0        0.852149   -2.185989    0.000000
      4          8           0        0.054191    1.689810    0.000000
      5          1           0       -0.226964    2.631328    0.000000
      6          1           0       -0.745259    1.118507    0.000000
 ---------------------------------------------------------------------

 SCF Done:  E(RHF) =  -152.107541364     A.U. after   10 cycles
 E2 =    -0.5268155127D+00 EUMP2 =    -0.15263435687655D+03
 CCSD(T)
 CCSD(T)= -0.15266151004D+03

 The electronic state is 1-A'.
 Alpha  occ. eigenvalues --  -20.55745 -20.53824  -1.33024  -1.31100  -0.70439
 Alpha  occ. eigenvalues --   -0.68485  -0.56427  -0.54512  -0.50140  -0.48224
 Alpha virt. eigenvalues --    0.13348   0.16698   0.19894   0.23492   0.53954
 Alpha virt. eigenvalues --    0.54905   0.57062   0.58315   0.66036   0.76013
 Alpha virt. eigenvalues --    0.77102   0.77406   0.79007   0.81402   0.84677

 Mulliken charges:
               1
     1  O   -0.492223
     2  H    0.242858
     3  H    0.255425
     4  O   -0.503047
     5  H    0.238134
     6  H    0.258854
 Sum of Mulliken charges =  -0.00000

 Dipole moment (field-independent basis, Debye):
    X=             -1.7934    Y=             -1.4686    Z=              0.0000  Tot=              2.3180
 Quadrupole moment (field-independent basis, Debye-Ang):
   XX=             -9.6589   YY=             -1.6778   ZZ=            -14.7190
   XY=             -2.7466   XZ=              0.0000   YZ=              0.0000

 Normal termination of Gaussian 16 at Sat Aug 27 05:48:54 2022.
