 Gaussian 16, Revision A.03,
 Gaussian 16:  ES64L-G16RevA.03 25-Dec-2016

 ------------------
 #p CCSD(T)/cc-pVTZ
 ------------------

 ------------
 H2O_H2O_1651
 ------------
 Symbolic Z-matrix:
 Charge =  0 Multiplicity = 1

                         Standard orientation:
 ---------------------------------------------------------------------
 Center     Atomic      Atomic             Coordinates (Angstroms)
 Number     Number       Type             X           Y           Z
 ---------------------------------------------------------------------
      1          8           0        0.003735   -1.680997    0.000000
      2          1           0       -0.795945   -2.251976    0.000000
      3          1           0        0.803197   -2.252282    0.000000
      4          8           0        0.003735    1.681240    0.000000
      5          1           0        0.764360    2.303298    0.000000
      6          1           0       -0.831379    2.199014    0.000000
 ---------------------------------------------------------------------

 SCF Done:  E(RHF) =  -152.103443418     A.U. after   10 cycles
 E2 =    -0.5268225105D+00 EUMP2 =    -0.15263026592824D+03
 CCSD(T)
 CCSD(T)= -0.15265753275D+03

 The electronic state is 1-A'.
 Alpha  occ. eigenvalues --  -20.54174 -20.54169  -1.31496  -1.31410  -0.68917
 Alpha  occ. eigenvalues --   -0.68846  -0.55354  -0.53989  -0.48649  -0.48434
 Alpha virt. eigenvalues --    0.14289   0.16267   0.20597   0.21535   0.52896
 Alpha virt. eigenvalues --    0.58077   0.58268   0.58496   0.61749   0.75990
 Alpha virt. eigenvalues --    0.78721   0.78932   0.79940   0.81646   0.84808

 Mulliken charges:
               1
     1  O   -0.481380
     2  H    0.240236
     3  H    0.241154
     4  O   -0.481369
     5  H    0.240207
     6  H    0.241152
 Sum of Mulliken charges =  -0.00000

 Dipole moment (field-independent basis, Debye):
    X=             -0.1242    Y=             -0.0045    Z=              0.0000  Tot=              0.1243
 Quadrupole moment (field-independent basis, Debye-Ang):
   XX=             -7.8758   YY=              1.1623   ZZ=            -14.7087
   XY=             -0.1032   XZ=              0.0000   YZ=              0.0000

 Normal termination of Gaussian 16 at Sat Aug 27 06:00:01 2022.
