 Gaussian 16, Revision A.03,
 Gaussian 16:  ES64L-G16RevA.03 25-Dec-2016

 ------------------
 #p CCSD(T)/cc-pVTZ
 ------------------

 ------------
 H2O_H2O_4901
 ------------
 Symbolic Z-matrix:
 Charge =  0 Multiplicity = 1

                         Standard orientation:
 ---------------------------------------------------------------------
 Center     Atomic      Atomic             Coordinates (Angstroms)
 Number     Number       Type             X           Y           Z
 ---------------------------------------------------------------------
      1          8           0        0.003735   -3.409465    0.000000
      2          1           0       -0.795889   -3.980521    0.000000
      3          1           0        0.803253   -3.980672    0.000000
      4          8           0        0.003735    3.409708    0.000000
      5          1           0        0.764300    4.031841    0.000000
      6          1           0       -0.831429    3.927402    0.000000
 ---------------------------------------------------------------------

 SCF Done:  E(RHF) =  -152.106952563     A.U. after   10 cycles
 E2 =    -0.5259138102D+00 EUMP2 =    -0.15263286637341D+03
 CCSD(T)
 CCSD(T)= -0.15266009652D+03

 The electronic state is 1-A'.
 Alpha  occ. eigenvalues --  -20.55254 -20.55253  -1.32551  -1.32549  -0.69957
 Alpha  occ. eigenvalues --   -0.69956  -0.55977  -0.55976  -0.49659  -0.49658
 Alpha virt. eigenvalues --    0.14383   0.14389   0.20435   0.20439   0.54610
 Alpha virt. eigenvalues --    0.54612   0.57487   0.57490   0.68243   0.68254
 Alpha virt. eigenvalues --    0.79221   0.79222   0.80662   0.80663   0.82587

 Mulliken charges:
               1
     1  O   -0.506175
     2  H    0.253019
     3  H    0.253156
     4  O   -0.506174
     5  H    0.252990
     6  H    0.253184
 Sum of Mulliken charges =  -0.00000

 Dipole moment (field-independent basis, Debye):
    X=             -0.1285    Y=             -0.0042    Z=              0.0000  Tot=              0.1285
 Quadrupole moment (field-independent basis, Debye-Ang):
   XX=             -7.8094   YY=             15.2195   ZZ=            -14.7109
   XY=             -0.3206   XZ=              0.0000   YZ=              0.0000

 95503\MP4DQ=-152.6419933\MP4SDQ=-152.645052\CCSD=-152.6444641\CCSD(T)=
 Normal termination of Gaussian 16 at Sat Aug 27 09:58:57 2022.
