 Gaussian 16, Revision A.03,
 Gaussian 16:  ES64L-G16RevA.03 25-Dec-2016

 ------------------
 #p CCSD(T)/cc-pVTZ
 ------------------

 -----------
 H2O_H2O_796
 -----------
 Symbolic Z-matrix:
 Charge =  0 Multiplicity = 1

                         Standard orientation:
 ---------------------------------------------------------------------
 Center     Atomic      Atomic             Coordinates (Angstroms)
 Number     Number       Type             X           Y           Z
 ---------------------------------------------------------------------
      1          8           0        0.056198   -1.166076    0.000000
      2          1           0       -0.745639   -1.734022    0.000000
      3          1           0        0.853490   -1.740386    0.000000
      4          8           0        0.056198    1.257572    0.000000
      5          1           0       -0.344404    2.154804    0.000000
      6          1           0       -0.662620    0.587642    0.000000
 ---------------------------------------------------------------------

 SCF Done:  E(RHF) =  -152.097412537     A.U. after   11 cycles
 E2 =    -0.5306272600D+00 EUMP2 =    -0.15262803979745D+03
 CCSD(T)
 CCSD(T)= -0.15265497963D+03

 The electronic state is 1-A'.
 Alpha  occ. eigenvalues --  -20.56224 -20.51953  -1.34170  -1.29371  -0.71533
 Alpha  occ. eigenvalues --   -0.68346  -0.55780  -0.52861  -0.51162  -0.46412
 Alpha virt. eigenvalues --    0.13202   0.18166   0.19519   0.25705   0.51124
 Alpha virt. eigenvalues --    0.56314   0.60342   0.61368   0.71541   0.73830
 Alpha virt. eigenvalues --    0.76720   0.82745   0.83361   0.83876   0.87054

 Mulliken charges:
               1
     1  O   -0.456568
     2  H    0.229731
     3  H    0.249381
     4  O   -0.498281
     5  H    0.214883
     6  H    0.260854
 Sum of Mulliken charges =  -0.00000

 Dipole moment (field-independent basis, Debye):
    X=             -1.7436    Y=             -1.9281    Z=              0.0000  Tot=              2.5996
 Quadrupole moment (field-independent basis, Debye-Ang):
   XX=             -9.8004   YY=             -4.9717   ZZ=            -14.7157
   XY=             -2.2961   XZ=              0.0000   YZ=              0.0000

 Normal termination of Gaussian 16 at Fri Aug 26 20:06:36 2022.
