 Gaussian 16, Revision A.03,
 Gaussian 16:  ES64L-G16RevA.03 25-Dec-2016

 ------------------
 #p CCSD(T)/cc-pVTZ
 ------------------

 ------------
 H2O_H2O_1856
 ------------
 Symbolic Z-matrix:
 Charge =  0 Multiplicity = 1

                         Standard orientation:
 ---------------------------------------------------------------------
 Center     Atomic      Atomic             Coordinates (Angstroms)
 Number     Number       Type             X           Y           Z
 ---------------------------------------------------------------------
      1          8           0        0.021861   -1.782799    0.000000
      2          1           0       -0.778311   -2.353088    0.000000
      3          1           0        0.820830   -2.354772    0.000000
      4          8           0        0.021861    1.791447    0.000000
      5          1           0        0.542883    2.624539    0.000000
      6          1           0       -0.935175    2.014129    0.000000
 ---------------------------------------------------------------------

 SCF Done:  E(RHF) =  -152.104541306     A.U. after   10 cycles
 E2 =    -0.5265863720D+00 EUMP2 =    -0.15263112767797D+03
 CCSD(T)
 CCSD(T)= -0.15265837309D+03

 The electronic state is 1-A'.
 Alpha  occ. eigenvalues --  -20.54473 -20.54309  -1.31754  -1.31580  -0.69177
 Alpha  occ. eigenvalues --   -0.68996  -0.55371  -0.54515  -0.48869  -0.48656
 Alpha virt. eigenvalues --    0.14120   0.16059   0.20541   0.21462   0.53296
 Alpha virt. eigenvalues --    0.56654   0.58001   0.58377   0.61994   0.76065
 Alpha virt. eigenvalues --    0.79049   0.79431   0.80585   0.81041   0.83536

 Mulliken charges:
               1
     1  O   -0.487826
     2  H    0.241769
     3  H    0.246352
     4  O   -0.487840
     5  H    0.241029
     6  H    0.246516
 Sum of Mulliken charges =   0.00000

 Dipole moment (field-independent basis, Debye):
    X=             -0.7315    Y=             -0.1600    Z=              0.0000  Tot=              0.7488
 Quadrupole moment (field-independent basis, Debye-Ang):
   XX=             -8.1479   YY=              1.8343   ZZ=            -14.7095
   XY=             -0.7369   XZ=              0.0000   YZ=              0.0000

 Normal termination of Gaussian 16 at Sat Aug 27 07:11:55 2022.
