 Gaussian 16, Revision A.03,
 Gaussian 16:  ES64L-G16RevA.03 25-Dec-2016

 ------------------
 #p CCSD(T)/cc-pVTZ
 ------------------

 ------------
 H2O_H2O_2207
 ------------
 Symbolic Z-matrix:
 Charge =  0 Multiplicity = 1

                         Standard orientation:
 ---------------------------------------------------------------------
 Center     Atomic      Atomic             Coordinates (Angstroms)
 Number     Number       Type             X           Y           Z
 ---------------------------------------------------------------------
      1          8           0        0.025267   -1.967271    0.000000
      2          1           0       -0.774933   -2.537522    0.000000
      3          1           0        0.824208   -2.539284    0.000000
      4          8           0        0.025267    1.978995    0.000000
      5          1           0        0.490729    2.844357    0.000000
      6          1           0       -0.944277    2.138655    0.000000
 ---------------------------------------------------------------------

 SCF Done:  E(RHF) =  -152.105366476     A.U. after   10 cycles
 E2 =    -0.5263061365D+00 EUMP2 =    -0.15263167261284D+03
 CCSD(T)
 CCSD(T)= -0.15265891319D+03

 The electronic state is 1-A'.
 Alpha  occ. eigenvalues --  -20.54699 -20.54517  -1.31982  -1.31796  -0.69399
 Alpha  occ. eigenvalues --   -0.69205  -0.55428  -0.55010  -0.49084  -0.48893
 Alpha virt. eigenvalues --    0.14070   0.15698   0.20534   0.21232   0.53948
 Alpha virt. eigenvalues --    0.55892   0.57866   0.58166   0.62838   0.74873
 Alpha virt. eigenvalues --    0.79425   0.80317   0.80383   0.81154   0.82463

 Mulliken charges:
               1
     1  O   -0.494986
     2  H    0.245518
     3  H    0.249660
     4  O   -0.494802
     5  H    0.244699
     6  H    0.249910
 Sum of Mulliken charges =  -0.00000

 Dipole moment (field-independent basis, Debye):
    X=             -0.8529    Y=             -0.2130    Z=              0.0000  Tot=              0.8791
 Quadrupole moment (field-independent basis, Debye-Ang):
   XX=             -8.2322   YY=              3.2187   ZZ=            -14.7100
   XY=             -1.0320   XZ=              0.0000   YZ=              0.0000

 Normal termination of Gaussian 16 at Sat Aug 27 09:12:54 2022.
