 Gaussian 16, Revision A.03,
 Gaussian 16:  ES64L-G16RevA.03 25-Dec-2016

 ------------------
 #p CCSD(T)/cc-pVTZ
 ------------------

 ------------
 H2O_H2O_1000
 ------------
 Symbolic Z-matrix:
 Charge =  0 Multiplicity = 1

                         Standard orientation:
 ---------------------------------------------------------------------
 Center     Atomic      Atomic             Coordinates (Angstroms)
 Number     Number       Type             X           Y           Z
 ---------------------------------------------------------------------
      1          8           0        0.000000   -0.000000    1.335436
      2          1           0        0.000000    0.799571    1.906568
      3          1           0       -0.000000   -0.799571    1.906568
      4          8           0        0.000000   -0.000000   -1.335436
      5          1           0       -0.000000   -0.799571   -1.906568
      6          1           0        0.000000    0.799571   -1.906568
 ---------------------------------------------------------------------

 SCF Done:  E(RHF) =  -152.096644034     A.U. after   10 cycles
 E2 =    -0.5283655503D+00 EUMP2 =    -0.15262500958414D+03
 CCSD(T)
 CCSD(T)= -0.15265233076D+03

 The electronic state is 1-AG.
 Alpha  occ. eigenvalues --  -20.53360 -20.53359  -1.31044  -1.30486  -0.68394
 Alpha  occ. eigenvalues --   -0.68008  -0.56339  -0.51245  -0.48306  -0.47322
 Alpha virt. eigenvalues --    0.14477   0.17228   0.20571   0.22157   0.50639
 Alpha virt. eigenvalues --    0.58629   0.58824   0.62100   0.72243   0.76579
 Alpha virt. eigenvalues --    0.76900   0.78417   0.80226   0.83642   0.86382

 Mulliken charges:
               1
     1  O   -0.463642
     2  H    0.231821
     3  H    0.231821
     4  O   -0.463642
     5  H    0.231821
     6  H    0.231821
 Sum of Mulliken charges =   0.00000

 Dipole moment (field-independent basis, Debye):
    X=             -0.0000    Y=              0.0000    Z=              0.0000  Tot=              0.0000
 Quadrupole moment (field-independent basis, Debye-Ang):
   XX=            -14.7176   YY=             -7.9477   ZZ=             -1.9907
   XY=              0.0000   XZ=             -0.0000   YZ=             -0.0000

 P4DQ=-152.6337588\MP4SDQ=-152.6369611\CCSD=-152.6363225\CCSD(T)=-152.6
 Normal termination of Gaussian 16 at Sat Aug 27 01:16:46 2022.
