 Gaussian 16, Revision A.03,
 Gaussian 16:  ES64L-G16RevA.03 25-Dec-2016

 ------------------
 #p CCSD(T)/cc-pVTZ
 ------------------

 ------------
 H2O_H2O_4718
 ------------
 Symbolic Z-matrix:
 Charge =  0 Multiplicity = 1

                         Standard orientation:
 ---------------------------------------------------------------------
 Center     Atomic      Atomic             Coordinates (Angstroms)
 Number     Number       Type             X           Y           Z
 ---------------------------------------------------------------------
      1          8           0        0.052814   -3.265014    0.000000
      2          1           0       -0.747542   -3.835045    0.000000
      3          1           0        0.851598   -3.837246    0.000000
      4          8           0        0.052814    3.335382    0.000000
      5          1           0       -0.167542    4.292957    0.000000
      6          1           0       -0.781541    2.816385    0.000000
 ---------------------------------------------------------------------

 SCF Done:  E(RHF) =  -152.107382213     A.U. after   10 cycles
 E2 =    -0.5258789236D+00 EUMP2 =    -0.15263326113630D+03
 CCSD(T)
 CCSD(T)= -0.15266048194D+03

 The electronic state is 1-A'.
 Alpha  occ. eigenvalues --  -20.55570 -20.55199  -1.32869  -1.32496  -0.70275
 Alpha  occ. eigenvalues --   -0.69897  -0.56315  -0.55941  -0.49981  -0.49609
 Alpha virt. eigenvalues --    0.14102   0.14477   0.20177   0.20571   0.54287
 Alpha virt. eigenvalues --    0.54676   0.57203   0.57575   0.67872   0.68262
 Alpha virt. eigenvalues --    0.78899   0.79266   0.80331   0.80727   0.82256

 Mulliken charges:
               1
     1  O   -0.508732
     2  H    0.253343
     3  H    0.255390
     4  O   -0.508518
     5  H    0.252379
     6  H    0.256139
 Sum of Mulliken charges =  -0.00000

 Dipole moment (field-independent basis, Debye):
    X=             -1.8163    Y=             -1.2277    Z=              0.0000  Tot=              2.1923
 Quadrupole moment (field-independent basis, Debye-Ang):
   XX=             -9.5596   YY=              7.8938   ZZ=            -14.7119
   XY=             -5.5041   XZ=              0.0000   YZ=              0.0000

 Normal termination of Gaussian 16 at Sat Aug 27 08:55:57 2022.
