 Gaussian 16, Revision A.03,
 Gaussian 16:  ES64L-G16RevA.03 25-Dec-2016

 ------------------
 #p CCSD(T)/cc-pVTZ
 ------------------

 -----------
 H2O_H2O_416
 -----------
 Symbolic Z-matrix:
 Charge =  0 Multiplicity = 1

                         Standard orientation:
 ---------------------------------------------------------------------
 Center     Atomic      Atomic             Coordinates (Angstroms)
 Number     Number       Type             X           Y           Z
 ---------------------------------------------------------------------
      1          8           0        0.049581   -0.985535    0.000000
      2          1           0       -0.752382   -1.553304    0.000000
      3          1           0        0.846746   -1.560020    0.000000
      4          8           0        0.049581    1.042233    0.000000
      5          1           0       -0.041140    2.020637    0.000000
      6          1           0       -0.846520    0.639109    0.000000
 ---------------------------------------------------------------------

 SCF Done:  E(RHF) =  -152.061189431     A.U. after   11 cycles
 E2 =    -0.5352034760D+00 EUMP2 =    -0.15259639290700D+03
 CCSD(T)
 CCSD(T)= -0.15262316920D+03

 The electronic state is 1-A'.
 Alpha  occ. eigenvalues --  -20.54103 -20.51660  -1.33776  -1.28604  -0.71097
 Alpha  occ. eigenvalues --   -0.68507  -0.56508  -0.50602  -0.48083  -0.45419
 Alpha virt. eigenvalues --    0.13848   0.18345   0.19853   0.24262   0.52380
 Alpha virt. eigenvalues --    0.57022   0.59492   0.63329   0.72088   0.75676
 Alpha virt. eigenvalues --    0.79995   0.82765   0.83423   0.84438   0.88135

 Mulliken charges:
               1
     1  O   -0.424510
     2  H    0.204414
     3  H    0.228717
     4  O   -0.427868
     5  H    0.176235
     6  H    0.243011
 Sum of Mulliken charges =  -0.00000

 Dipole moment (field-independent basis, Debye):
    X=             -1.4381    Y=             -1.1771    Z=              0.0000  Tot=              1.8584
 Quadrupole moment (field-independent basis, Debye-Ang):
   XX=             -9.4712   YY=             -5.8870   ZZ=            -14.7019
   XY=             -1.1668   XZ=              0.0000   YZ=              0.0000

 Normal termination of Gaussian 16 at Fri Aug 26 16:15:38 2022.
