 Gaussian 16, Revision A.03,
 Gaussian 16:  ES64L-G16RevA.03 25-Dec-2016

 ------------------
 #p CCSD(T)/cc-pVTZ
 ------------------

 ------------
 H2O_H2O_2924
 ------------
 Symbolic Z-matrix:
 Charge =  0 Multiplicity = 1

                         Standard orientation:
 ---------------------------------------------------------------------
 Center     Atomic      Atomic             Coordinates (Angstroms)
 Number     Number       Type             X           Y           Z
 ---------------------------------------------------------------------
      1          8           0        0.057233   -2.284020    0.000000
      2          1           0       -0.743536   -2.853471    0.000000
      3          1           0        0.855603   -2.856830    0.000000
      4          8           0        0.057233    2.398006    0.000000
      5          1           0       -0.512218    3.198775    0.000000
      6          1           0       -0.515577    1.599636    0.000000
 ---------------------------------------------------------------------

 SCF Done:  E(RHF) =  -152.108308143     A.U. after   10 cycles
 E2 =    -0.5259457366D+00 EUMP2 =    -0.15263425387936D+03
 CCSD(T)
 CCSD(T)= -0.15266143868D+03

 The electronic state is 1-A'.
 Alpha  occ. eigenvalues --  -20.55980 -20.54671  -1.33269  -1.31974  -0.70674
 Alpha  occ. eigenvalues --   -0.69356  -0.56748  -0.55437  -0.50387  -0.49096
 Alpha virt. eigenvalues --    0.13153   0.15443   0.19868   0.21675   0.53873
 Alpha virt. eigenvalues --    0.54862   0.56898   0.58066   0.66669   0.70484
 Alpha virt. eigenvalues --    0.78509   0.79460   0.79755   0.80205   0.82800

 Mulliken charges:
               1
     1  O   -0.511123
     2  H    0.253391
     3  H    0.258781
     4  O   -0.512273
     5  H    0.249721
     6  H    0.261503
 Sum of Mulliken charges =  -0.00000

 Dipole moment (field-independent basis, Debye):
    X=             -1.9526    Y=             -2.0413    Z=              0.0000  Tot=              2.8249
 Quadrupole moment (field-independent basis, Debye-Ang):
   XX=             -9.8621   YY=             -0.7411   ZZ=            -14.7153
   XY=             -4.8793   XZ=              0.0000   YZ=              0.0000

 Normal termination of Gaussian 16 at Fri Aug 26 17:30:14 2022.
