 Gaussian 16, Revision A.03,
 Gaussian 16:  ES64L-G16RevA.03 25-Dec-2016

 ------------------
 #p CCSD(T)/cc-pVTZ
 ------------------

 ------------
 H2O_H2O_4045
 ------------
 Symbolic Z-matrix:
 Charge =  0 Multiplicity = 1

                         Standard orientation:
 ---------------------------------------------------------------------
 Center     Atomic      Atomic             Coordinates (Angstroms)
 Number     Number       Type             X           Y           Z
 ---------------------------------------------------------------------
      1          8           0        0.055235   -2.898358    0.000000
      2          1           0       -0.745257   -3.468198    0.000000
      3          1           0        0.853883   -3.470781    0.000000
      4          8           0        0.055235    2.982842    0.000000
      5          1           0       -0.288005    3.903544    0.000000
      6          1           0       -0.704387    2.359561    0.000000
 ---------------------------------------------------------------------

 SCF Done:  E(RHF) =  -152.107491402     A.U. after   10 cycles
 E2 =    -0.5258817203D+00 EUMP2 =    -0.15263337312215D+03
 CCSD(T)
 CCSD(T)= -0.15266059072D+03

 The electronic state is 1-A'.
 Alpha  occ. eigenvalues --  -20.55639 -20.55068  -1.32938  -1.32366  -0.70344
 Alpha  occ. eigenvalues --   -0.69763  -0.56389  -0.55813  -0.50050  -0.49480
 Alpha virt. eigenvalues --    0.13988   0.14652   0.20116   0.20748   0.54211
 Alpha virt. eigenvalues --    0.54809   0.57141   0.57707   0.67678   0.68500
 Alpha virt. eigenvalues --    0.78831   0.79390   0.80257   0.80803   0.82294

 Mulliken charges:
               1
     1  O   -0.509398
     2  H    0.253229
     3  H    0.256179
     4  O   -0.509002
     5  H    0.251639
     6  H    0.257354
 Sum of Mulliken charges =  -0.00000

 Dipole moment (field-independent basis, Debye):
    X=             -1.8964    Y=             -1.4809    Z=              0.0000  Tot=              2.4062
 Quadrupole moment (field-independent basis, Debye-Ang):
   XX=             -9.7236   YY=              4.5945   ZZ=            -14.7123
   XY=             -5.3236   XZ=              0.0000   YZ=              0.0000

 Normal termination of Gaussian 16 at Sat Aug 27 05:04:47 2022.
