 Gaussian 16, Revision A.03,
 Gaussian 16:  ES64L-G16RevA.03 25-Dec-2016

 ------------------
 #p CCSD(T)/cc-pVTZ
 ------------------

 -----------
 H2O_H2O_348
 -----------
 Symbolic Z-matrix:
 Charge =  0 Multiplicity = 1

                         Standard orientation:
 ---------------------------------------------------------------------
 Center     Atomic      Atomic             Coordinates (Angstroms)
 Number     Number       Type             X           Y           Z
 ---------------------------------------------------------------------
      1          8           0        0.057260   -0.918774    0.000000
      2          1           0       -0.745184   -1.485862    0.000000
      3          1           0        0.853937   -1.493934    0.000000
      4          8           0        0.057260    1.024952    0.000000
      5          1           0       -0.456133    1.862769    0.000000
      6          1           0       -0.568775    0.267598    0.000000
 ---------------------------------------------------------------------

 SCF Done:  E(RHF) =  -152.026830578     A.U. after   11 cycles
 E2 =    -0.5400633428D+00 EUMP2 =    -0.15256689392056D+03
 CCSD(T)
 CCSD(T)= -0.15259263188D+03

 The electronic state is 1-A'.
 Alpha  occ. eigenvalues --  -20.57049 -20.48412  -1.38455  -1.26672  -0.76173
 Alpha  occ. eigenvalues --   -0.71587  -0.54028  -0.50774  -0.49490  -0.43564
 Alpha virt. eigenvalues --    0.12664   0.18403   0.19896   0.27336   0.49014
 Alpha virt. eigenvalues --    0.54117   0.62928   0.68214   0.72569   0.74863
 Alpha virt. eigenvalues --    0.77992   0.79521   0.83858   0.85518   0.87988

 Mulliken charges:
               1
     1  O   -0.350369
     2  H    0.196204
     3  H    0.234346
     4  O   -0.524329
     5  H    0.176806
     6  H    0.267342
 Sum of Mulliken charges =   0.00000

 Dipole moment (field-independent basis, Debye):
    X=             -1.6205    Y=             -2.6628    Z=              0.0000  Tot=              3.1171
 Quadrupole moment (field-independent basis, Debye-Ang):
   XX=             -9.8247   YY=             -7.4800   ZZ=            -14.6112
   XY=             -2.1068   XZ=              0.0000   YZ=              0.0000

 Normal termination of Gaussian 16 at Fri Aug 26 15:32:10 2022.
