 Gaussian 16, Revision A.03,
 Gaussian 16:  ES64L-G16RevA.03 25-Dec-2016

 ------------------
 #p CCSD(T)/cc-pVTZ
 ------------------

 -----------
 H2O_H2O_812
 -----------
 Symbolic Z-matrix:
 Charge =  0 Multiplicity = 1

                         Standard orientation:
 ---------------------------------------------------------------------
 Center     Atomic      Atomic             Coordinates (Angstroms)
 Number     Number       Type             X           Y           Z
 ---------------------------------------------------------------------
      1          8           0        0.040432   -1.211019    0.000000
      2          1           0       -0.760753   -1.779885    0.000000
      3          1           0        0.838383   -1.784413    0.000000
      4          8           0        0.040432    1.244247    0.000000
      5          1           0        0.204707    2.213019    0.000000
      6          1           0       -0.929255    1.085461    0.000000
 ---------------------------------------------------------------------

 SCF Done:  E(RHF) =  -152.094648498     A.U. after   11 cycles
 E2 =    -0.5295034186D+00 EUMP2 =    -0.15262415191620D+03
 CCSD(T)
 CCSD(T)= -0.15265136551D+03

 The electronic state is 1-A'.
 Alpha  occ. eigenvalues --  -20.54045 -20.52944  -1.31824  -1.30129  -0.69171
 Alpha  occ. eigenvalues --   -0.67847  -0.56749  -0.51086  -0.49039  -0.47004
 Alpha virt. eigenvalues --    0.14113   0.17440   0.20260   0.23147   0.53111
 Alpha virt. eigenvalues --    0.58022   0.58184   0.60999   0.70621   0.75868
 Alpha virt. eigenvalues --    0.77508   0.79460   0.83459   0.85718   0.86339

 Mulliken charges:
               1
     1  O   -0.468101
     2  H    0.226054
     3  H    0.243363
     4  O   -0.453825
     5  H    0.210326
     6  H    0.242184
 Sum of Mulliken charges =  -0.00000

 Dipole moment (field-independent basis, Debye):
    X=             -1.2569    Y=             -0.6507    Z=              0.0000  Tot=              1.4154
 Quadrupole moment (field-independent basis, Debye-Ang):
   XX=             -8.9543   YY=             -3.4033   ZZ=            -14.7250
   XY=             -0.9417   XZ=              0.0000   YZ=              0.0000

 Normal termination of Gaussian 16 at Fri Aug 26 20:14:32 2022.
