 Gaussian 16, Revision A.03,
 Gaussian 16:  ES64L-G16RevA.03 25-Dec-2016

 ------------------
 #p CCSD(T)/cc-pVTZ
 ------------------

 ------------
 H2O_H2O_3388
 ------------
 Symbolic Z-matrix:
 Charge =  0 Multiplicity = 1

                         Standard orientation:
 ---------------------------------------------------------------------
 Center     Atomic      Atomic             Coordinates (Angstroms)
 Number     Number       Type             X           Y           Z
 ---------------------------------------------------------------------
      1          8           0        0.042968   -2.577480    0.000000
      2          1           0       -0.757416   -3.147473    0.000000
      3          1           0        0.841725   -3.149749    0.000000
      4          8           0        0.042968    2.616269    0.000000
      5          1           0        0.142153    3.593852    0.000000
      6          1           0       -0.913945    2.393054    0.000000
 ---------------------------------------------------------------------

 SCF Done:  E(RHF) =  -152.106836415     A.U. after   10 cycles
 E2 =    -0.5259601608D+00 EUMP2 =    -0.15263279657593D+03
 CCSD(T)
 CCSD(T)= -0.15266002672D+03

 The electronic state is 1-A'.
 Alpha  occ. eigenvalues --  -20.55281 -20.54943  -1.32577  -1.32236  -0.69985
 Alpha  occ. eigenvalues --   -0.69636  -0.55997  -0.55657  -0.49684  -0.49346
 Alpha virt. eigenvalues --    0.14179   0.14826   0.20353   0.20799   0.54539
 Alpha virt. eigenvalues --    0.54952   0.57447   0.57783   0.67640   0.69264
 Alpha virt. eigenvalues --    0.79195   0.79527   0.80611   0.80985   0.82680

 Mulliken charges:
               1
     1  O   -0.505524
     2  H    0.251073
     3  H    0.254472
     4  O   -0.505142
     5  H    0.249936
     6  H    0.255185
 Sum of Mulliken charges =  -0.00000

 Dipole moment (field-independent basis, Debye):
    X=             -1.4705    Y=             -0.6836    Z=              0.0000  Tot=              1.6216
 Quadrupole moment (field-independent basis, Debye-Ang):
   XX=             -8.9670   YY=              6.3079   ZZ=            -14.7111
   XY=             -3.0214   XZ=              0.0000   YZ=              0.0000

 Normal termination of Gaussian 16 at Fri Aug 26 21:54:54 2022.
