 Gaussian 16, Revision A.03,
 Gaussian 16:  ES64L-G16RevA.03 25-Dec-2016

 ------------------
 #p CCSD(T)/cc-pVTZ
 ------------------

 ------------
 H2O_H2O_3468
 ------------
 Symbolic Z-matrix:
 Charge =  0 Multiplicity = 1

                         Standard orientation:
 ---------------------------------------------------------------------
 Center     Atomic      Atomic             Coordinates (Angstroms)
 Number     Number       Type             X           Y           Z
 ---------------------------------------------------------------------
      1          8           0        0.052826   -2.600237    0.000000
      2          1           0       -0.747728   -3.169990    0.000000
      3          1           0        0.851412   -3.172747    0.000000
      4          8           0        0.052826    2.670569    0.000000
      5          1           0       -0.167197    3.628220    0.000000
      6          1           0       -0.781709    2.151862    0.000000
 ---------------------------------------------------------------------

 SCF Done:  E(RHF) =  -152.107316732     A.U. after   10 cycles
 E2 =    -0.5259210950D+00 EUMP2 =    -0.15263323782658D+03
 CCSD(T)
 CCSD(T)= -0.15266045702D+03

 The electronic state is 1-A'.
 Alpha  occ. eigenvalues --  -20.55538 -20.54936  -1.32835  -1.32231  -0.70242
 Alpha  occ. eigenvalues --   -0.69625  -0.56278  -0.55671  -0.49946  -0.49345
 Alpha virt. eigenvalues --    0.13926   0.14877   0.20168   0.20906   0.54284
 Alpha virt. eigenvalues --    0.54923   0.57231   0.57799   0.67422   0.69148
 Alpha virt. eigenvalues --    0.78936   0.79523   0.80323   0.80792   0.82654

 Mulliken charges:
               1
     1  O   -0.508289
     2  H    0.252201
     3  H    0.256148
     4  O   -0.507828
     5  H    0.250359
     6  H    0.257409
 Sum of Mulliken charges =  -0.00000

 Dipole moment (field-independent basis, Debye):
    X=             -1.8091    Y=             -1.2404    Z=              0.0000  Tot=              2.1935
 Quadrupole moment (field-independent basis, Debye-Ang):
   XX=             -9.5589   YY=              4.2117   ZZ=            -14.7122
   XY=             -4.3079   XZ=              0.0000   YZ=              0.0000

 Normal termination of Gaussian 16 at Fri Aug 26 22:35:45 2022.
