 Gaussian 16, Revision A.03,
 Gaussian 16:  ES64L-G16RevA.03 25-Dec-2016

 ------------------
 #p CCSD(T)/cc-pVTZ
 ------------------

 ------------
 H2O_H2O_2471
 ------------
 Symbolic Z-matrix:
 Charge =  0 Multiplicity = 1

                         Standard orientation:
 ---------------------------------------------------------------------
 Center     Atomic      Atomic             Coordinates (Angstroms)
 Number     Number       Type             X           Y           Z
 ---------------------------------------------------------------------
      1          8           0        0.056121   -2.056804    0.000000
      2          1           0       -0.744758   -2.626101    0.000000
      3          1           0        0.854380   -2.629768    0.000000
      4          8           0        0.056121    2.148488    0.000000
      5          1           0       -0.345993    3.045043    0.000000
      6          1           0       -0.661567    1.477348    0.000000
 ---------------------------------------------------------------------

 SCF Done:  E(RHF) =  -152.108028809     A.U. after   10 cycles
 E2 =    -0.5260889151D+00 EUMP2 =    -0.15263411772437D+03
 CCSD(T)
 CCSD(T)= -0.15266129835D+03

 The electronic state is 1-A'.
 Alpha  occ. eigenvalues --  -20.55830 -20.54475  -1.33111  -1.31771  -0.70518
 Alpha  occ. eigenvalues --   -0.69145  -0.56567  -0.55224  -0.50227  -0.48893
 Alpha virt. eigenvalues --    0.13155   0.15794   0.19937   0.22154   0.54071
 Alpha virt. eigenvalues --    0.54631   0.57040   0.58369   0.66166   0.73010
 Alpha virt. eigenvalues --    0.78627   0.79445   0.79990   0.81577   0.82276

 Mulliken charges:
               1
     1  O   -0.506665
     2  H    0.250648
     3  H    0.257937
     4  O   -0.510363
     5  H    0.247246
     6  H    0.261197
 Sum of Mulliken charges =  -0.00000

 Dipole moment (field-independent basis, Debye):
    X=             -1.9033    Y=             -1.6656    Z=              0.0000  Tot=              2.5292
 Quadrupole moment (field-independent basis, Debye-Ang):
   XX=             -9.7823   YY=             -0.1212   ZZ=            -14.7154
   XY=             -3.9434   XZ=              0.0000   YZ=              0.0000

 Normal termination of Gaussian 16 at Sat Aug 27 10:44:27 2022.
