 Gaussian 16, Revision A.03,
 Gaussian 16:  ES64L-G16RevA.03 25-Dec-2016

 ------------------
 #p CCSD(T)/cc-pVTZ
 ------------------

 ------------
 H2O_H2O_4809
 ------------
 Symbolic Z-matrix:
 Charge =  0 Multiplicity = 1

                         Standard orientation:
 ---------------------------------------------------------------------
 Center     Atomic      Atomic             Coordinates (Angstroms)
 Number     Number       Type             X           Y           Z
 ---------------------------------------------------------------------
      1          8           0        0.031738   -3.345987    0.000000
      2          1           0       -0.768297   -3.916468    0.000000
      3          1           0        0.830844   -3.917769    0.000000
      4          8           0        0.031738    3.365186    0.000000
      5          1           0        0.380001    4.283999    0.000000
      6          1           0       -0.950359    3.396646    0.000000
 ---------------------------------------------------------------------

 SCF Done:  E(RHF) =  -152.107048939     A.U. after   10 cycles
 E2 =    -0.5259066527D+00 EUMP2 =    -0.15263295559128D+03
 CCSD(T)
 CCSD(T)= -0.15266018361D+03

 The electronic state is 1-A'.
 Alpha  occ. eigenvalues --  -20.55332 -20.55234  -1.32629  -1.32530  -0.70035
 Alpha  occ. eigenvalues --   -0.69935  -0.56059  -0.55961  -0.49737  -0.49639
 Alpha virt. eigenvalues --    0.14315   0.14414   0.20372   0.20474   0.54531
 Alpha virt. eigenvalues --    0.54637   0.57418   0.57516   0.68157   0.68258
 Alpha virt. eigenvalues --    0.79142   0.79239   0.80581   0.80687   0.82506

 Mulliken charges:
               1
     1  O   -0.506750
     2  H    0.252770
     3  H    0.253980
     4  O   -0.506674
     5  H    0.252421
     6  H    0.254253
 Sum of Mulliken charges =  -0.00000

 Dipole moment (field-independent basis, Debye):
    X=             -1.0915    Y=             -0.3345    Z=              0.0000  Tot=              1.1416
 Quadrupole moment (field-independent basis, Debye-Ang):
   XX=             -8.4357   YY=             13.1618   ZZ=            -14.7111
   XY=             -2.8552   XZ=              0.0000   YZ=              0.0000

 Normal termination of Gaussian 16 at Sat Aug 27 09:27:11 2022.
