 Gaussian 16, Revision A.03,
 Gaussian 16:  ES64L-G16RevA.03 25-Dec-2016

 ------------------
 #p CCSD(T)/cc-pVTZ
 ------------------

 ------------
 H2O_H2O_1847
 ------------
 Symbolic Z-matrix:
 Charge =  0 Multiplicity = 1

                         Standard orientation:
 ---------------------------------------------------------------------
 Center     Atomic      Atomic             Coordinates (Angstroms)
 Number     Number       Type             X           Y           Z
 ---------------------------------------------------------------------
      1          8           0        0.056761   -1.720430    0.000000
      2          1           0       -0.744380   -2.289358    0.000000
      3          1           0        0.854756   -2.293762    0.000000
      4          8           0        0.056761    1.819434    0.000000
      5          1           0       -0.402730    2.687982    0.000000
      6          1           0       -0.615825    1.103101    0.000000
 ---------------------------------------------------------------------

 SCF Done:  E(RHF) =  -152.108879621     A.U. after   10 cycles
 E2 =    -0.5265093859D+00 EUMP2 =    -0.15263538900681D+03
 CCSD(T)
 CCSD(T)= -0.15266252307D+03

 The electronic state is 1-A'.
 Alpha  occ. eigenvalues --  -20.56148 -20.53935  -1.33416  -1.31233  -0.70822
 Alpha  occ. eigenvalues --   -0.68606  -0.56878  -0.54705  -0.50537  -0.48365
 Alpha virt. eigenvalues --    0.13042   0.16563   0.19756   0.23948   0.53340
 Alpha virt. eigenvalues --    0.55405   0.56701   0.58270   0.66435   0.74915
 Alpha virt. eigenvalues --    0.77613   0.78023   0.79271   0.80841   0.84367

 Mulliken charges:
               1
     1  O   -0.498916
     2  H    0.247394
     3  H    0.258025
     4  O   -0.512539
     5  H    0.242764
     6  H    0.263273
 Sum of Mulliken charges =  -0.00000

 Dipole moment (field-independent basis, Debye):
    X=             -1.8972    Y=             -1.8676    Z=              0.0000  Tot=              2.6622
 Quadrupole moment (field-independent basis, Debye-Ang):
   XX=             -9.8266   YY=             -2.1711   ZZ=            -14.7200
   XY=             -3.4884   XZ=              0.0000   YZ=              0.0000

 Normal termination of Gaussian 16 at Sat Aug 27 07:08:51 2022.
