 Gaussian 16, Revision A.03,
 Gaussian 16:  ES64L-G16RevA.03 25-Dec-2016

 ------------------
 #p CCSD(T)/cc-pVTZ
 ------------------

 -----------
 H2O_H2O_480
 -----------
 Symbolic Z-matrix:
 Charge =  0 Multiplicity = 1

                         Standard orientation:
 ---------------------------------------------------------------------
 Center     Atomic      Atomic             Coordinates (Angstroms)
 Number     Number       Type             X           Y           Z
 ---------------------------------------------------------------------
      1          8           0        0.018363   -1.052958    0.000000
      2          1           0       -0.782062   -1.622893    0.000000
      3          1           0        0.817078   -1.625286    0.000000
      4          8           0        0.018363    1.058965    0.000000
      5          1           0        0.593110    1.855941    0.000000
      6          1           0       -0.921933    1.344181    0.000000
 ---------------------------------------------------------------------

 SCF Done:  E(RHF) =  -152.066912527     A.U. after   11 cycles
 E2 =    -0.5331607164D+00 EUMP2 =    -0.15260007324298D+03
 CCSD(T)
 CCSD(T)= -0.15262708849D+03

 The electronic state is 1-A'.
 Alpha  occ. eigenvalues --  -20.52321 -20.52133  -1.31613  -1.28986  -0.68507
 Alpha  occ. eigenvalues --   -0.66902  -0.59587  -0.48886  -0.45789  -0.45519
 Alpha virt. eigenvalues --    0.14577   0.18109   0.20479   0.22843   0.50961
 Alpha virt. eigenvalues --    0.58898   0.58967   0.65105   0.70351   0.77322
 Alpha virt. eigenvalues --    0.78251   0.82227   0.84230   0.86577   0.87312

 Mulliken charges:
               1
     1  O   -0.443741
     2  H    0.215777
     3  H    0.226442
     4  O   -0.430491
     5  H    0.201560
     6  H    0.230454
 Sum of Mulliken charges =   0.00000

 Dipole moment (field-independent basis, Debye):
    X=             -0.5452    Y=             -0.1232    Z=              0.0000  Tot=              0.5590
 Quadrupole moment (field-independent basis, Debye-Ang):
   XX=             -8.2939   YY=             -5.0319   ZZ=            -14.7431
   XY=             -0.2036   XZ=              0.0000   YZ=              0.0000

 Normal termination of Gaussian 16 at Fri Aug 26 16:51:11 2022.
