 Gaussian 16, Revision A.03,
 Gaussian 16:  ES64L-G16RevA.03 25-Dec-2016

 ------------------
 #p CCSD(T)/cc-pVTZ
 ------------------

 ------------
 H2O_H2O_1693
 ------------
 Symbolic Z-matrix:
 Charge =  0 Multiplicity = 1

                         Standard orientation:
 ---------------------------------------------------------------------
 Center     Atomic      Atomic             Coordinates (Angstroms)
 Number     Number       Type             X           Y           Z
 ---------------------------------------------------------------------
      1          8           0        0.052860   -1.656281    0.000000
      2          1           0       -0.748242   -2.225264    0.000000
      3          1           0        0.850894   -2.229558    0.000000
      4          8           0        0.052860    1.726511    0.000000
      5          1           0       -0.166242    2.684373    0.000000
      6          1           0       -0.782174    1.208607    0.000000
 ---------------------------------------------------------------------

 SCF Done:  E(RHF) =  -152.107194778     A.U. after   10 cycles
 E2 =    -0.5267078394D+00 EUMP2 =    -0.15263390261741D+03
 CCSD(T)
 CCSD(T)= -0.15266106912D+03

 The electronic state is 1-A'.
 Alpha  occ. eigenvalues --  -20.55586 -20.53947  -1.32862  -1.31218  -0.70279
 Alpha  occ. eigenvalues --   -0.68596  -0.56270  -0.54606  -0.49977  -0.48340
 Alpha virt. eigenvalues --    0.13415   0.16557   0.19972   0.23093   0.54231
 Alpha virt. eigenvalues --    0.54555   0.57197   0.58424   0.65354   0.76154
 Alpha virt. eigenvalues --    0.77819   0.77894   0.78646   0.81241   0.84801

 Mulliken charges:
               1
     1  O   -0.492926
     2  H    0.242942
     3  H    0.254666
     4  O   -0.501294
     5  H    0.238761
     6  H    0.257850
 Sum of Mulliken charges =  -0.00000

 Dipole moment (field-independent basis, Debye):
    X=             -1.7547    Y=             -1.3255    Z=              0.0000  Tot=              2.1991
 Quadrupole moment (field-independent basis, Debye-Ang):
   XX=             -9.5715   YY=             -1.1260   ZZ=            -14.7173
   XY=             -2.6329   XZ=              0.0000   YZ=              0.0000

 Normal termination of Gaussian 16 at Sat Aug 27 06:15:19 2022.
