 Gaussian 16, Revision A.03,
 Gaussian 16:  ES64L-G16RevA.03 25-Dec-2016

 ------------------
 #p CCSD(T)/cc-pVTZ
 ------------------

 ------------
 H2O_H2O_2230
 ------------
 Symbolic Z-matrix:
 Charge =  0 Multiplicity = 1

                         Standard orientation:
 ---------------------------------------------------------------------
 Center     Atomic      Atomic             Coordinates (Angstroms)
 Number     Number       Type             X           Y           Z
 ---------------------------------------------------------------------
      1          8           0        0.018361   -1.983658    0.000000
      2          1           0       -0.781664   -2.554154    0.000000
      3          1           0        0.817477   -2.555426    0.000000
      4          8           0        0.018361    1.989691    0.000000
      5          1           0        0.592549    2.787070    0.000000
      6          1           0       -0.922135    2.274247    0.000000
 ---------------------------------------------------------------------

 SCF Done:  E(RHF) =  -152.105230443     A.U. after   10 cycles
 E2 =    -0.5262994367D+00 EUMP2 =    -0.15263152988006D+03
 CCSD(T)
 CCSD(T)= -0.15265877524D+03

 The electronic state is 1-A'.
 Alpha  occ. eigenvalues --  -20.54631 -20.54539  -1.31914  -1.31820  -0.69332
 Alpha  occ. eigenvalues --   -0.69233  -0.55383  -0.54998  -0.49018  -0.48912
 Alpha virt. eigenvalues --    0.14148   0.15651   0.20586   0.21165   0.54162
 Alpha virt. eigenvalues --    0.56052   0.57886   0.58159   0.62576   0.74726
 Alpha virt. eigenvalues --    0.79485   0.80305   0.80577   0.81223   0.82222

 Mulliken charges:
               1
     1  O   -0.494522
     2  H    0.245827
     3  H    0.248784
     4  O   -0.494375
     5  H    0.245332
     6  H    0.248953
 Sum of Mulliken charges =  -0.00000

 Dipole moment (field-independent basis, Debye):
    X=             -0.6201    Y=             -0.1095    Z=              0.0000  Tot=              0.6297
 Quadrupole moment (field-independent basis, Debye-Ang):
   XX=             -8.0453   YY=              3.5344   ZZ=            -14.7096
   XY=             -0.7257   XZ=              0.0000   YZ=              0.0000

 Normal termination of Gaussian 16 at Sat Aug 27 09:20:31 2022.
