 Gaussian 16, Revision A.03,
 Gaussian 16:  ES64L-G16RevA.03 25-Dec-2016

 ------------------
 #p CCSD(T)/cc-pVTZ
 ------------------

 ------------
 H2O_H2O_4831
 ------------
 Symbolic Z-matrix:
 Charge =  0 Multiplicity = 1

                         Standard orientation:
 ---------------------------------------------------------------------
 Center     Atomic      Atomic             Coordinates (Angstroms)
 Number     Number       Type             X           Y           Z
 ---------------------------------------------------------------------
      1          8           0        0.021859   -3.365000    0.000000
      2          1           0       -0.778031   -3.935686    0.000000
      3          1           0        0.821111   -3.936579    0.000000
      4          8           0        0.021859    3.373671    0.000000
      5          1           0        0.542469    4.207020    0.000000
      6          1           0       -0.935287    3.595880    0.000000
 ---------------------------------------------------------------------

 SCF Done:  E(RHF) =  -152.106986778     A.U. after   10 cycles
 E2 =    -0.5259116342D+00 EUMP2 =    -0.15263289841268D+03
 CCSD(T)
 CCSD(T)= -0.15266012778D+03

 The electronic state is 1-A'.
 Alpha  occ. eigenvalues --  -20.55284 -20.55241  -1.32581  -1.32537  -0.69988
 Alpha  occ. eigenvalues --   -0.69943  -0.56009  -0.55965  -0.49689  -0.49646
 Alpha virt. eigenvalues --    0.14357   0.14402   0.20411   0.20456   0.54580
 Alpha virt. eigenvalues --    0.54627   0.57460   0.57504   0.68212   0.68259
 Alpha virt. eigenvalues --    0.79190   0.79233   0.80630   0.80678   0.82556

 Mulliken charges:
               1
     1  O   -0.506380
     2  H    0.252777
     3  H    0.253602
     4  O   -0.506343
     5  H    0.252569
     6  H    0.253774
 Sum of Mulliken charges =  -0.00000

 Dipole moment (field-independent basis, Debye):
    X=             -0.7517    Y=             -0.1510    Z=              0.0000  Tot=              0.7667
 Quadrupole moment (field-independent basis, Debye-Ang):
   XX=             -8.1020   YY=             14.1852   ZZ=            -14.7110
   XY=             -1.9040   XZ=              0.0000   YZ=              0.0000

 Normal termination of Gaussian 16 at Sat Aug 27 09:34:49 2022.
