 Gaussian 16, Revision A.03,
 Gaussian 16:  ES64L-G16RevA.03 25-Dec-2016

 ------------------
 #p CCSD(T)/cc-pVTZ
 ------------------

 ------------
 H2O_H2O_2895
 ------------
 Symbolic Z-matrix:
 Charge =  0 Multiplicity = 1

                         Standard orientation:
 ---------------------------------------------------------------------
 Center     Atomic      Atomic             Coordinates (Angstroms)
 Number     Number       Type             X           Y           Z
 ---------------------------------------------------------------------
      1          8           0        0.055253   -2.286771    0.000000
      2          1           0       -0.745481   -2.856271    0.000000
      3          1           0        0.853658   -2.859532    0.000000
      4          8           0        0.055253    2.371208    0.000000
      5          1           0       -0.287597    3.292055    0.000000
      6          1           0       -0.704634    1.748249    0.000000
 ---------------------------------------------------------------------

 SCF Done:  E(RHF) =  -152.107634660     A.U. after   10 cycles
 E2 =    -0.5259766852D+00 EUMP2 =    -0.15263361134515D+03
 CCSD(T)
 CCSD(T)= -0.15266081431D+03

 The electronic state is 1-A'.
 Alpha  occ. eigenvalues --  -20.55681 -20.54712  -1.32973  -1.32007  -0.70380
 Alpha  occ. eigenvalues --   -0.69392  -0.56423  -0.55454  -0.50086  -0.49125
 Alpha virt. eigenvalues --    0.13451   0.15353   0.20037   0.21411   0.54063
 Alpha virt. eigenvalues --    0.54858   0.57139   0.57976   0.66600   0.70993
 Alpha virt. eigenvalues --    0.78801   0.79736   0.79836   0.80794   0.82763

 Mulliken charges:
               1
     1  O   -0.508567
     2  H    0.251740
     3  H    0.257425
     4  O   -0.508998
     5  H    0.248904
     6  H    0.259497
 Sum of Mulliken charges =  -0.00000

 Dipole moment (field-independent basis, Debye):
    X=             -1.8841    Y=             -1.5092    Z=              0.0000  Tot=              2.4141
 Quadrupole moment (field-independent basis, Debye-Ang):
   XX=             -9.7226   YY=              1.5064   ZZ=            -14.7136
   XY=             -4.1777   XZ=              0.0000   YZ=              0.0000

 Normal termination of Gaussian 16 at Fri Aug 26 17:14:17 2022.
