 Gaussian 16, Revision A.03,
 Gaussian 16:  ES64L-G16RevA.03 25-Dec-2016

 ------------------
 #p CCSD(T)/cc-pVTZ
 ------------------

 ------------
 H2O_H2O_1198
 ------------
 Symbolic Z-matrix:
 Charge =  0 Multiplicity = 1

                         Standard orientation:
 ---------------------------------------------------------------------
 Center     Atomic      Atomic             Coordinates (Angstroms)
 Number     Number       Type             X           Y           Z
 ---------------------------------------------------------------------
      1          8           0        0.057175   -1.370739    0.000000
      2          1           0       -0.744360   -1.939113    0.000000
      3          1           0        0.854773   -1.944622    0.000000
      4          8           0        0.057175    1.477101    0.000000
      5          1           0       -0.457560    2.314093    0.000000
      6          1           0       -0.567646    0.718744    0.000000
 ---------------------------------------------------------------------

 SCF Done:  E(RHF) =  -152.108385058     A.U. after   10 cycles
 E2 =    -0.5280981243D+00 EUMP2 =    -0.15263648318248D+03
 CCSD(T)
 CCSD(T)= -0.15266351794D+03

 The electronic state is 1-A'.
 Alpha  occ. eigenvalues --  -20.56707 -20.52803  -1.34113  -1.30172  -0.71489
 Alpha  occ. eigenvalues --   -0.67996  -0.57215  -0.53693  -0.51209  -0.47291
 Alpha virt. eigenvalues --    0.12968   0.17618   0.19493   0.26038   0.51510
 Alpha virt. eigenvalues --    0.56221   0.57315   0.59494   0.69907   0.74396
 Alpha virt. eigenvalues --    0.74399   0.78876   0.82292   0.83894   0.83959

 Mulliken charges:
               1
     1  O   -0.486411
     2  H    0.243692
     3  H    0.259637
     4  O   -0.516980
     5  H    0.232763
     6  H    0.267300
 Sum of Mulliken charges =  -0.00000

 Dipole moment (field-independent basis, Debye):
    X=             -1.8494    Y=             -2.1526    Z=              0.0000  Tot=              2.8380
 Quadrupole moment (field-independent basis, Debye-Ang):
   XX=             -9.8526   YY=             -4.2770   ZZ=            -14.7272
   XY=             -2.9980   XZ=              0.0000   YZ=              0.0000

 Normal termination of Gaussian 16 at Sat Aug 27 02:55:00 2022.
