 Gaussian 16, Revision A.03,
 Gaussian 16:  ES64L-G16RevA.03 25-Dec-2016

 ------------------
 #p CCSD(T)/cc-pVTZ
 ------------------

 ------------
 H2O_H2O_2437
 ------------
 Symbolic Z-matrix:
 Charge =  0 Multiplicity = 1

                         Standard orientation:
 ---------------------------------------------------------------------
 Center     Atomic      Atomic             Coordinates (Angstroms)
 Number     Number       Type             X           Y           Z
 ---------------------------------------------------------------------
      1          8           0        0.040413   -2.075204    0.000000
      2          1           0       -0.760106   -2.645006    0.000000
      3          1           0        0.839034   -2.647664    0.000000
      4          8           0        0.040413    2.108526    0.000000
      5          1           0        0.203554    3.077490    0.000000
      6          1           0       -0.929088    1.948606    0.000000
 ---------------------------------------------------------------------

 SCF Done:  E(RHF) =  -152.106238202     A.U. after   10 cycles
 E2 =    -0.5261607174D+00 EUMP2 =    -0.15263239891967D+03
 CCSD(T)
 CCSD(T)= -0.15265962689D+03

 The electronic state is 1-A'.
 Alpha  occ. eigenvalues --  -20.55060 -20.54594  -1.32346  -1.31877  -0.69759
 Alpha  occ. eigenvalues --   -0.69272  -0.55739  -0.55247  -0.49450  -0.48984
 Alpha virt. eigenvalues --    0.13848   0.15562   0.20359   0.21293   0.53988
 Alpha virt. eigenvalues --    0.55247   0.57636   0.58078   0.64811   0.73855
 Alpha virt. eigenvalues --    0.79323   0.79982   0.80419   0.81411   0.82919

 Mulliken charges:
               1
     1  O   -0.500578
     2  H    0.247619
     3  H    0.253329
     4  O   -0.500451
     5  H    0.246009
     6  H    0.254071
 Sum of Mulliken charges =  -0.00000

 Dipole moment (field-independent basis, Debye):
    X=             -1.3696    Y=             -0.6005    Z=              0.0000  Tot=              1.4955
 Quadrupole moment (field-independent basis, Debye-Ang):
   XX=             -8.8422   YY=              3.1757   ZZ=            -14.7112
   XY=             -2.0845   XZ=              0.0000   YZ=              0.0000

 Normal termination of Gaussian 16 at Sat Aug 27 10:33:27 2022.
