 Gaussian 16, Revision A.03,
 Gaussian 16:  ES64L-G16RevA.03 25-Dec-2016

 ------------------
 #p CCSD(T)/cc-pVTZ
 ------------------

 ------------
 H2O_H2O_4893
 ------------
 Symbolic Z-matrix:
 Charge =  0 Multiplicity = 1

                         Standard orientation:
 ---------------------------------------------------------------------
 Center     Atomic      Atomic             Coordinates (Angstroms)
 Number     Number       Type             X           Y           Z
 ---------------------------------------------------------------------
      1          8           0        0.052813   -3.358083    0.000000
      2          1           0       -0.747522   -3.928144    0.000000
      3          1           0        0.851619   -3.930285    0.000000
      4          8           0        0.052813    3.428455    0.000000
      5          1           0       -0.167579    4.386022    0.000000
      6          1           0       -0.781523    2.909428    0.000000
 ---------------------------------------------------------------------

 SCF Done:  E(RHF) =  -152.107389633     A.U. after   10 cycles
 E2 =    -0.5258764259D+00 EUMP2 =    -0.15263326605844D+03
 CCSD(T)
 CCSD(T)= -0.15266048683D+03

 The electronic state is 1-A'.
 Alpha  occ. eigenvalues --  -20.55575 -20.55224  -1.32873  -1.32522  -0.70279
 Alpha  occ. eigenvalues --   -0.69923  -0.56320  -0.55967  -0.49985  -0.49634
 Alpha virt. eigenvalues --    0.14100   0.14451   0.20174   0.20544   0.54283
 Alpha virt. eigenvalues --    0.54649   0.57199   0.57550   0.67870   0.68231
 Alpha virt. eigenvalues --    0.78895   0.79241   0.80326   0.80699   0.82250

 Mulliken charges:
               1
     1  O   -0.508773
     2  H    0.253443
     3  H    0.255329
     4  O   -0.508580
     5  H    0.252554
     6  H    0.256026
 Sum of Mulliken charges =  -0.00000

 Dipole moment (field-independent basis, Debye):
    X=             -1.8169    Y=             -1.2267    Z=              0.0000  Tot=              2.1922
 Quadrupole moment (field-independent basis, Debye-Ang):
   XX=             -9.5597   YY=              8.4072   ZZ=            -14.7119
   XY=             -5.6722   XZ=              0.0000   YZ=              0.0000

 Normal termination of Gaussian 16 at Sat Aug 27 09:56:05 2022.
