 Gaussian 16, Revision A.03,
 Gaussian 16:  ES64L-G16RevA.03 25-Dec-2016

 ------------------
 #p CCSD(T)/cc-pVTZ
 ------------------

 ------------
 H2O_H2O_3962
 ------------
 Symbolic Z-matrix:
 Charge =  0 Multiplicity = 1

                         Standard orientation:
 ---------------------------------------------------------------------
 Center     Atomic      Atomic             Coordinates (Angstroms)
 Number     Number       Type             X           Y           Z
 ---------------------------------------------------------------------
      1          8           0        0.040405   -2.886235    0.000000
      2          1           0       -0.759849   -3.456409    0.000000
      3          1           0        0.839292   -3.458324    0.000000
      4          8           0        0.040405    2.919594    0.000000
      5          1           0        0.203097    3.888634    0.000000
      6          1           0       -0.929022    2.759224    0.000000
 ---------------------------------------------------------------------

 SCF Done:  E(RHF) =  -152.106956544     A.U. after   10 cycles
 E2 =    -0.5259279596D+00 EUMP2 =    -0.15263288450345D+03
 CCSD(T)
 CCSD(T)= -0.15266011367D+03

 The electronic state is 1-A'.
 Alpha  occ. eigenvalues --  -20.55316 -20.55086  -1.32612  -1.32381  -0.70020
 Alpha  occ. eigenvalues --   -0.69783  -0.56039  -0.55807  -0.49720  -0.49490
 Alpha virt. eigenvalues --    0.14292   0.14581   0.20367   0.20625   0.54543
 Alpha virt. eigenvalues --    0.54798   0.57425   0.57658   0.68090   0.68519
 Alpha virt. eigenvalues --    0.79159   0.79385   0.80598   0.80847   0.82537

 Mulliken charges:
               1
     1  O   -0.506229
     2  H    0.251951
     3  H    0.254279
     4  O   -0.506010
     5  H    0.251200
     6  H    0.254808
 Sum of Mulliken charges =  -0.00000

 Dipole moment (field-independent basis, Debye):
    X=             -1.3864    Y=             -0.5843    Z=              0.0000  Tot=              1.5045
 Quadrupole moment (field-independent basis, Debye-Ang):
   XX=             -8.8313   YY=              8.7778   ZZ=            -14.7111
   XY=             -3.1918   XZ=              0.0000   YZ=              0.0000

 Normal termination of Gaussian 16 at Sat Aug 27 04:35:40 2022.
