 Gaussian 16, Revision A.03,
 Gaussian 16:  ES64L-G16RevA.03 25-Dec-2016

 ------------------
 #p CCSD(T)/cc-pVTZ
 ------------------

 ------------
 H2O_H2O_1177
 ------------
 Symbolic Z-matrix:
 Charge =  0 Multiplicity = 1

                         Standard orientation:
 ---------------------------------------------------------------------
 Center     Atomic      Atomic             Coordinates (Angstroms)
 Number     Number       Type             X           Y           Z
 ---------------------------------------------------------------------
      1          8           0        0.007455   -1.427979    0.000000
      2          1           0       -0.792372   -1.998752    0.000000
      3          1           0        0.806769   -1.999470    0.000000
      4          8           0        0.007455    1.428950    0.000000
      5          1           0        0.725939    2.099238    0.000000
      6          1           0       -0.859616    1.891220    0.000000
 ---------------------------------------------------------------------

 SCF Done:  E(RHF) =  -152.099743682     A.U. after   10 cycles
 E2 =    -0.5277466494D+00 EUMP2 =    -0.15262749033174D+03
 CCSD(T)
 CCSD(T)= -0.15265480213D+03

 The electronic state is 1-A'.
 Alpha  occ. eigenvalues --  -20.53662 -20.53638  -1.31159  -1.30819  -0.68550
 Alpha  occ. eigenvalues --   -0.68302  -0.55870  -0.52302  -0.48385  -0.47727
 Alpha virt. eigenvalues --    0.14425   0.16932   0.20562   0.21995   0.51208
 Alpha virt. eigenvalues --    0.58451   0.58732   0.60849   0.68806   0.76317
 Alpha virt. eigenvalues --    0.77334   0.78076   0.79172   0.83151   0.86231

 Mulliken charges:
               1
     1  O   -0.468702
     2  H    0.232896
     3  H    0.235777
     4  O   -0.468042
     5  H    0.232832
     6  H    0.235240
 Sum of Mulliken charges =  -0.00000

 Dipole moment (field-independent basis, Debye):
    X=             -0.2416    Y=             -0.0184    Z=              0.0000  Tot=              0.2423
 Quadrupole moment (field-independent basis, Debye-Ang):
   XX=             -7.9516   YY=             -1.1137   ZZ=            -14.7127
   XY=             -0.1473   XZ=              0.0000   YZ=              0.0000

 Normal termination of Gaussian 16 at Sat Aug 27 02:45:30 2022.
