 Gaussian 16, Revision A.03,
 Gaussian 16:  ES64L-G16RevA.03 25-Dec-2016

 ------------------
 #p CCSD(T)/cc-pVTZ
 ------------------

 -----------
 H2O_H2O_320
 -----------
 Symbolic Z-matrix:
 Charge =  0 Multiplicity = 1

                         Standard orientation:
 ---------------------------------------------------------------------
 Center     Atomic      Atomic             Coordinates (Angstroms)
 Number     Number       Type             X           Y           Z
 ---------------------------------------------------------------------
      1          8           0        0.055376   -0.917460    0.000000
      2          1           0       -0.747012   -1.484628    0.000000
      3          1           0        0.852110   -1.492542    0.000000
      4          8           0        0.055376    1.001575    0.000000
      5          1           0       -0.284793    1.923416    0.000000
      6          1           0       -0.706321    0.380831    0.000000
 ---------------------------------------------------------------------

 SCF Done:  E(RHF) =  -152.030953784     A.U. after   11 cycles
 E2 =    -0.5394584757D+00 EUMP2 =    -0.15257041226022D+03
 CCSD(T)
 CCSD(T)= -0.15259656911D+03

 The electronic state is 1-A'.
 Alpha  occ. eigenvalues --  -20.55353 -20.50091  -1.36501  -1.27470  -0.74147
 Alpha  occ. eigenvalues --   -0.70227  -0.53195  -0.52517  -0.48208  -0.44399
 Alpha virt. eigenvalues --    0.13296   0.18900   0.19484   0.25658   0.50534
 Alpha virt. eigenvalues --    0.55366   0.61656   0.65774   0.72608   0.75637
 Alpha virt. eigenvalues --    0.79751   0.80611   0.83942   0.85061   0.88075

 Mulliken charges:
               1
     1  O   -0.376018
     2  H    0.189658
     3  H    0.227195
     4  O   -0.463266
     5  H    0.167831
     6  H    0.254600
 Sum of Mulliken charges =  -0.00000

 Dipole moment (field-independent basis, Debye):
    X=             -1.5627    Y=             -1.9212    Z=              0.0000  Tot=              2.4765
 Quadrupole moment (field-independent basis, Debye-Ang):
   XX=             -9.7711   YY=             -7.0297   ZZ=            -14.6446
   XY=             -1.6331   XZ=              0.0000   YZ=              0.0000

 Normal termination of Gaussian 16 at Fri Aug 26 15:13:45 2022.
