 Gaussian 16, Revision A.03,
 Gaussian 16:  ES64L-G16RevA.03 25-Dec-2016

 ------------------
 #p CCSD(T)/cc-pVTZ
 ------------------

 ------------
 H2O_H2O_3545
 ------------
 Symbolic Z-matrix:
 Charge =  0 Multiplicity = 1

                         Standard orientation:
 ---------------------------------------------------------------------
 Center     Atomic      Atomic             Coordinates (Angstroms)
 Number     Number       Type             X           Y           Z
 ---------------------------------------------------------------------
      1          8           0        0.055242   -2.632449    0.000000
      2          1           0       -0.745342   -3.202160    0.000000
      3          1           0        0.853798   -3.205000    0.000000
      4          8           0        0.055242    2.716915    0.000000
      5          1           0       -0.287851    3.637673    0.000000
      6          1           0       -0.704480    2.093756    0.000000
 ---------------------------------------------------------------------

 SCF Done:  E(RHF) =  -152.107519643     A.U. after   10 cycles
 E2 =    -0.5259018512D+00 EUMP2 =    -0.15263342149451D+03
 CCSD(T)
 CCSD(T)= -0.15266063632D+03

 The electronic state is 1-A'.
 Alpha  occ. eigenvalues --  -20.55646 -20.54943  -1.32944  -1.32240  -0.70350
 Alpha  occ. eigenvalues --   -0.69634  -0.56396  -0.55687  -0.50056  -0.49355
 Alpha virt. eigenvalues --    0.13835   0.14876   0.20095   0.20934   0.54182
 Alpha virt. eigenvalues --    0.54903   0.57139   0.57797   0.67344   0.69038
 Alpha virt. eigenvalues --    0.78827   0.79511   0.80212   0.80673   0.82649

 Mulliken charges:
               1
     1  O   -0.509459
     2  H    0.252821
     3  H    0.256711
     4  O   -0.508963
     5  H    0.250721
     6  H    0.258169
 Sum of Mulliken charges =  -0.00000

 Dipole moment (field-independent basis, Debye):
    X=             -1.8928    Y=             -1.4890    Z=              0.0000  Tot=              2.4083
 Quadrupole moment (field-independent basis, Debye-Ang):
   XX=             -9.7230   YY=              3.2531   ZZ=            -14.7126
   XY=             -4.8239   XZ=              0.0000   YZ=              0.0000

 Normal termination of Gaussian 16 at Sat Aug 27 01:22:18 2022.
