 Gaussian 16, Revision A.03,
 Gaussian 16:  ES64L-G16RevA.03 25-Dec-2016

 ------------------
 #p CCSD(T)/cc-pVTZ
 ------------------

 ------------
 H2O_H2O_2403
 ------------
 Symbolic Z-matrix:
 Charge =  0 Multiplicity = 1

                         Standard orientation:
 ---------------------------------------------------------------------
 Center     Atomic      Atomic             Coordinates (Angstroms)
 Number     Number       Type             X           Y           Z
 ---------------------------------------------------------------------
      1          8           0        0.011143   -2.078820    0.000000
      2          1           0       -0.788691   -2.649583    0.000000
      3          1           0        0.810450   -2.650321    0.000000
      4          8           0        0.011143    2.081005    0.000000
      5          1           0        0.684258    2.796840    0.000000
      6          1           0       -0.884301    2.485586    0.000000
 ---------------------------------------------------------------------

 SCF Done:  E(RHF) =  -152.105376839     A.U. after   10 cycles
 E2 =    -0.5262156523D+00 EUMP2 =    -0.15263159249086D+03
 CCSD(T)
 CCSD(T)= -0.15265884146D+03

 The electronic state is 1-A'.
 Alpha  occ. eigenvalues --  -20.54659 -20.54629  -1.31945  -1.31914  -0.69361
 Alpha  occ. eigenvalues --   -0.69328  -0.55394  -0.55137  -0.49050  -0.49006
 Alpha virt. eigenvalues --    0.14234   0.15466   0.20623   0.21038   0.54522
 Alpha virt. eigenvalues --    0.55864   0.57864   0.58079   0.63448   0.73861
 Alpha virt. eigenvalues --    0.79585   0.80093   0.81010   0.81371   0.81866

 Mulliken charges:
               1
     1  O   -0.496192
     2  H    0.247307
     3  H    0.248904
     4  O   -0.496115
     5  H    0.247082
     6  H    0.249014
 Sum of Mulliken charges =  -0.00000

 Dipole moment (field-independent basis, Debye):
    X=             -0.3775    Y=             -0.0393    Z=              0.0000  Tot=              0.3796
 Quadrupole moment (field-independent basis, Debye-Ang):
   XX=             -7.9081   YY=              4.4306   ZZ=            -14.7095
   XY=             -0.4617   XZ=              0.0000   YZ=              0.0000

 Normal termination of Gaussian 16 at Sat Aug 27 10:22:03 2022.
