 Gaussian 16, Revision A.03,
 Gaussian 16:  ES64L-G16RevA.03 25-Dec-2016

 ------------------
 #p CCSD(T)/cc-pVTZ
 ------------------

 ------------
 H2O_H2O_1707
 ------------
 Symbolic Z-matrix:
 Charge =  0 Multiplicity = 1

                         Standard orientation:
 ---------------------------------------------------------------------
 Center     Atomic      Atomic             Coordinates (Angstroms)
 Number     Number       Type             X           Y           Z
 ---------------------------------------------------------------------
      1          8           0        0.025268   -1.701358    0.000000
      2          1           0       -0.775030   -2.271471    0.000000
      3          1           0        0.824111   -2.273508    0.000000
      4          8           0        0.025268    1.713073    0.000000
      5          1           0        0.490879    2.578355    0.000000
      6          1           0       -0.944248    1.872899    0.000000
 ---------------------------------------------------------------------

 SCF Done:  E(RHF) =  -152.104204617     A.U. after   10 cycles
 E2 =    -0.5267470510D+00 EUMP2 =    -0.15263095166844D+03
 CCSD(T)
 CCSD(T)= -0.15265819902D+03

 The electronic state is 1-A'.
 Alpha  occ. eigenvalues --  -20.54430 -20.54189  -1.31715  -1.31456  -0.69140
 Alpha  occ. eigenvalues --   -0.68872  -0.55418  -0.54269  -0.48836  -0.48524
 Alpha virt. eigenvalues --    0.14116   0.16240   0.20504   0.21634   0.52971
 Alpha virt. eigenvalues --    0.56886   0.58052   0.58500   0.62740   0.76574
 Alpha virt. eigenvalues --    0.78724   0.78913   0.80122   0.81432   0.84425

 Mulliken charges:
               1
     1  O   -0.484822
     2  H    0.239669
     3  H    0.245641
     4  O   -0.484682
     5  H    0.238577
     6  H    0.245617
 Sum of Mulliken charges =   0.00000

 Dipole moment (field-independent basis, Debye):
    X=             -0.8411    Y=             -0.2183    Z=              0.0000  Tot=              0.8690
 Quadrupole moment (field-independent basis, Debye-Ang):
   XX=             -8.2552   YY=              1.0946   ZZ=            -14.7098
   XY=             -0.8091   XZ=              0.0000   YZ=              0.0000

 Normal termination of Gaussian 16 at Sat Aug 27 06:19:53 2022.
