 Gaussian 16, Revision A.03,
 Gaussian 16:  ES64L-G16RevA.03 25-Dec-2016

 ------------------
 #p CCSD(T)/cc-pVTZ
 ------------------

 -----------
 H2O_H2O_625
 -----------
 Symbolic Z-matrix:
 Charge =  0 Multiplicity = 1

                         Standard orientation:
 ---------------------------------------------------------------------
 Center     Atomic      Atomic             Coordinates (Angstroms)
 Number     Number       Type             X           Y           Z
 ---------------------------------------------------------------------
      1          8           0        0.000000   -0.000000    1.135997
      2          1           0        0.000000    0.799571    1.707129
      3          1           0       -0.000000   -0.799571    1.707129
      4          8           0        0.000000   -0.000000   -1.135997
      5          1           0       -0.000000   -0.799571   -1.707129
      6          1           0        0.000000    0.799571   -1.707129
 ---------------------------------------------------------------------

 SCF Done:  E(RHF) =  -152.080482694     A.U. after   10 cycles
 E2 =    -0.5310588075D+00 EUMP2 =    -0.15261154150100D+03
 CCSD(T)
 CCSD(T)= -0.15263874258D+03

 The electronic state is 1-AG.
 Alpha  occ. eigenvalues --  -20.52528 -20.52527  -1.31129  -1.29487  -0.68217
 Alpha  occ. eigenvalues --   -0.67170  -0.58405  -0.48448  -0.47667  -0.46103
 Alpha virt. eigenvalues --    0.14580   0.17923   0.20573   0.22541   0.50142
 Alpha virt. eigenvalues --    0.59028   0.59072   0.64714   0.72213   0.76948
 Alpha virt. eigenvalues --    0.77970   0.80942   0.84325   0.86650   0.86848

 Mulliken charges:
               1
     1  O   -0.449869
     2  H    0.224935
     3  H    0.224935
     4  O   -0.449869
     5  H    0.224935
     6  H    0.224935
 Sum of Mulliken charges =   0.00000

 Dipole moment (field-independent basis, Debye):
    X=             -0.0000    Y=              0.0000    Z=              0.0000  Tot=              0.0000
 Quadrupole moment (field-independent basis, Debye-Ang):
   XX=            -14.7383   YY=             -8.0457   ZZ=             -4.0805
   XY=              0.0000   XZ=             -0.0000   YZ=             -0.0000

 MP4DQ=-152.6197322\MP4SDQ=-152.6230678\CCSD=-152.6223797\CCSD(T)=-152.
 Normal termination of Gaussian 16 at Fri Aug 26 18:22:42 2022.
