 Gaussian 16, Revision A.03,
 Gaussian 16:  ES64L-G16RevA.03 25-Dec-2016

 ------------------
 #p CCSD(T)/cc-pVTZ
 ------------------

 -----------
 H2O_H2O_715
 -----------
 Symbolic Z-matrix:
 Charge =  0 Multiplicity = 1

                         Standard orientation:
 ---------------------------------------------------------------------
 Center     Atomic      Atomic             Coordinates (Angstroms)
 Number     Number       Type             X           Y           Z
 ---------------------------------------------------------------------
      1          8           0        0.047576   -1.148489    0.000000
      2          1           0       -0.753979   -1.716833    0.000000
      3          1           0        0.845153   -1.722403    0.000000
      4          8           0        0.047576    1.198924    0.000000
      5          1           0        0.020336    2.181148    0.000000
      6          1           0       -0.872726    0.854612    0.000000
 ---------------------------------------------------------------------

 SCF Done:  E(RHF) =  -152.091699881     A.U. after   11 cycles
 E2 =    -0.5304690012D+00 EUMP2 =    -0.15262216888245D+03
 CCSD(T)
 CCSD(T)= -0.15264929798D+03

 The electronic state is 1-A'.
 Alpha  occ. eigenvalues --  -20.54477 -20.52594  -1.32489  -1.29774  -0.69835
 Alpha  occ. eigenvalues --   -0.67923  -0.56576  -0.51101  -0.49633  -0.46677
 Alpha virt. eigenvalues --    0.13882   0.17719   0.20050   0.23768   0.52978
 Alpha virt. eigenvalues --    0.57555   0.58649   0.61068   0.71165   0.75187
 Alpha virt. eigenvalues --    0.78475   0.81516   0.83201   0.85162   0.87623

 Mulliken charges:
               1
     1  O   -0.462269
     2  H    0.224255
     3  H    0.243313
     4  O   -0.455569
     5  H    0.203883
     6  H    0.246387
 Sum of Mulliken charges =  -0.00000

 Dipole moment (field-independent basis, Debye):
    X=             -1.4583    Y=             -1.0053    Z=              0.0000  Tot=              1.7712
 Quadrupole moment (field-independent basis, Debye-Ang):
   XX=             -9.3273   YY=             -4.1814   ZZ=            -14.7244
   XY=             -1.2778   XZ=              0.0000   YZ=              0.0000

 Normal termination of Gaussian 16 at Fri Aug 26 19:21:55 2022.
