 Gaussian 16, Revision A.03,
 Gaussian 16:  ES64L-G16RevA.03 25-Dec-2016

 ------------------
 #p CCSD(T)/cc-pVTZ
 ------------------

 ------------
 H2O_H2O_1825
 ------------
 Symbolic Z-matrix:
 Charge =  0 Multiplicity = 1

                         Standard orientation:
 ---------------------------------------------------------------------
 Center     Atomic      Atomic             Coordinates (Angstroms)
 Number     Number       Type             X           Y           Z
 ---------------------------------------------------------------------
      1          8           0        0.000000   -0.000000    1.774200
      2          1           0        0.000000    0.799571    2.345332
      3          1           0       -0.000000   -0.799571    2.345332
      4          8           0        0.000000   -0.000000   -1.774200
      5          1           0       -0.000000   -0.799571   -2.345332
      6          1           0        0.000000    0.799571   -2.345332
 ---------------------------------------------------------------------

 SCF Done:  E(RHF) =  -152.104104329     A.U. after   10 cycles
 E2 =    -0.5266217557D+00 EUMP2 =    -0.15263072608498D+03
 CCSD(T)
 CCSD(T)= -0.15265798285D+03

 The electronic state is 1-AG.
 Alpha  occ. eigenvalues --  -20.54307 -20.54307  -1.31611  -1.31560  -0.69033
 Alpha  occ. eigenvalues --   -0.68988  -0.55311  -0.54364  -0.48748  -0.48607
 Alpha virt. eigenvalues --    0.14243   0.16059   0.20615   0.21390   0.53478
 Alpha virt. eigenvalues --    0.57562   0.57994   0.58390   0.60958   0.75812
 Alpha virt. eigenvalues --    0.79081   0.79659   0.80312   0.81156   0.83705

 Mulliken charges:
               1
     1  O   -0.485824
     2  H    0.242912
     3  H    0.242912
     4  O   -0.485824
     5  H    0.242912
     6  H    0.242912
 Sum of Mulliken charges =   0.00000

 Dipole moment (field-independent basis, Debye):
    X=             -0.0000    Y=              0.0000    Z=             -0.0000  Tot=              0.0000
 Quadrupole moment (field-independent basis, Debye-Ang):
   XX=            -14.7088   YY=             -7.8557   ZZ=              1.9671
   XY=              0.0000   XZ=              0.0000   YZ=             -0.0000

 MP4DQ=-152.6397476\MP4SDQ=-152.6428525\CCSD=-152.6422447\CCSD(T)=-152.
 Normal termination of Gaussian 16 at Sat Aug 27 07:00:01 2022.
