 Gaussian 16, Revision A.03,
 Gaussian 16:  ES64L-G16RevA.03 25-Dec-2016

 ------------------
 #p CCSD(T)/cc-pVTZ
 ------------------

 ------------
 H2O_H2O_2802
 ------------
 Symbolic Z-matrix:
 Charge =  0 Multiplicity = 1

                         Standard orientation:
 ---------------------------------------------------------------------
 Center     Atomic      Atomic             Coordinates (Angstroms)
 Number     Number       Type             X           Y           Z
 ---------------------------------------------------------------------
      1          8           0        0.007455   -2.292212    0.000000
      2          1           0       -0.792276   -2.863120    0.000000
      3          1           0        0.806866   -2.863568    0.000000
      4          8           0        0.007455    2.293185    0.000000
      5          1           0        0.725826    2.963595    0.000000
      6          1           0       -0.859695    2.755309    0.000000
 ---------------------------------------------------------------------

 SCF Done:  E(RHF) =  -152.105816760     A.U. after   10 cycles
 E2 =    -0.5260888180D+00 EUMP2 =    -0.15263190557749D+03
 CCSD(T)
 CCSD(T)= -0.15265915419D+03

 The electronic state is 1-A'.
 Alpha  occ. eigenvalues --  -20.54803 -20.54792  -1.32094  -1.32083  -0.69506
 Alpha  occ. eigenvalues --   -0.69494  -0.55501  -0.55410  -0.49196  -0.49182
 Alpha virt. eigenvalues --    0.14363   0.15113   0.20621   0.20854   0.54802
 Alpha virt. eigenvalues --    0.55343   0.57796   0.57914   0.66000   0.71540
 Alpha virt. eigenvalues --    0.79608   0.79760   0.81117   0.81177   0.82346

 Mulliken charges:
               1
     1  O   -0.499425
     2  H    0.249301
     3  H    0.250126
     4  O   -0.499397
     5  H    0.249185
     6  H    0.250210
 Sum of Mulliken charges =  -0.00000

 Dipole moment (field-independent basis, Debye):
    X=             -0.2539    Y=             -0.0173    Z=              0.0000  Tot=              0.2545
 Quadrupole moment (field-independent basis, Debye-Ang):
   XX=             -7.8559   YY=              6.2075   ZZ=            -14.7096
   XY=             -0.3591   XZ=              0.0000   YZ=              0.0000

 Normal termination of Gaussian 16 at Fri Aug 26 16:18:59 2022.
