 Gaussian 16, Revision A.03,
 Gaussian 16:  ES64L-G16RevA.03 25-Dec-2016

 ------------------
 #p CCSD(T)/cc-pVTZ
 ------------------

 -----------
 H2O_H2O_246
 -----------
 Symbolic Z-matrix:
 Charge =  0 Multiplicity = 1

                         Standard orientation:
 ---------------------------------------------------------------------
 Center     Atomic      Atomic             Coordinates (Angstroms)
 Number     Number       Type             X           Y           Z
 ---------------------------------------------------------------------
      1          8           0        0.056256   -0.873641    0.000000
      2          1           0       -0.746300   -1.440571    0.000000
      3          1           0        0.852820   -1.448959    0.000000
      4          8           0        0.056256    0.964994    0.000000
      5          1           0       -0.343210    1.862732    0.000000
      6          1           0       -0.663410    0.295974    0.000000
 ---------------------------------------------------------------------

 SCF Done:  E(RHF) =  -151.999520071     A.U. after   11 cycles
 E2 =    -0.5427953135D+00 EUMP2 =    -0.15254231538429D+03
 CCSD(T)
 CCSD(T)= -0.15256794724D+03

 The electronic state is 1-A'.
 Alpha  occ. eigenvalues --  -20.55817 -20.49057  -1.38361  -1.26712  -0.76076
 Alpha  occ. eigenvalues --   -0.71242  -0.53675  -0.51876  -0.46770  -0.43650
 Alpha virt. eigenvalues --    0.13067   0.18677   0.19801   0.26124   0.49913
 Alpha virt. eigenvalues --    0.54557   0.62288   0.67376   0.72873   0.75849
 Alpha virt. eigenvalues --    0.79336   0.79611   0.84064   0.85198   0.88273

 Mulliken charges:
               1
     1  O   -0.342917
     2  H    0.180448
     3  H    0.223022
     4  O   -0.478108
     5  H    0.157549
     6  H    0.260007
 Sum of Mulliken charges =  -0.00000

 Dipole moment (field-independent basis, Debye):
    X=             -1.5475    Y=             -2.2054    Z=              0.0000  Tot=              2.6942
 Quadrupole moment (field-independent basis, Debye-Ang):
   XX=             -9.8083   YY=             -7.6972   ZZ=            -14.6055
   XY=             -1.6872   XZ=              0.0000   YZ=              0.0000

 Normal termination of Gaussian 16 at Fri Aug 26 14:28:10 2022.
