 Gaussian 16, Revision A.03,
 Gaussian 16:  ES64L-G16RevA.03 25-Dec-2016

 ------------------
 #p CCSD(T)/cc-pVTZ
 ------------------

 ------------
 H2O_H2O_4072
 ------------
 Symbolic Z-matrix:
 Charge =  0 Multiplicity = 1

                         Standard orientation:
 ---------------------------------------------------------------------
 Center     Atomic      Atomic             Coordinates (Angstroms)
 Number     Number       Type             X           Y           Z
 ---------------------------------------------------------------------
      1          8           0        0.056706   -2.903701    0.000000
      2          1           0       -0.743806   -3.473512    0.000000
      3          1           0        0.855334   -3.476152    0.000000
      4          8           0        0.056706    3.002830    0.000000
      5          1           0       -0.403742    3.870870    0.000000
      6          1           0       -0.615089    2.285755    0.000000
 ---------------------------------------------------------------------

 SCF Done:  E(RHF) =  -152.107636268     A.U. after   10 cycles
 E2 =    -0.5258687032D+00 EUMP2 =    -0.15263350497163D+03
 CCSD(T)
 CCSD(T)= -0.15266071948D+03

 The electronic state is 1-A'.
 Alpha  occ. eigenvalues --  -20.55725 -20.55063  -1.33025  -1.32363  -0.70430
 Alpha  occ. eigenvalues --   -0.69759  -0.56483  -0.55814  -0.50138  -0.49478
 Alpha virt. eigenvalues --    0.13906   0.14671   0.20050   0.20781   0.54124
 Alpha virt. eigenvalues --    0.54807   0.57066   0.57718   0.67561   0.68501
 Alpha virt. eigenvalues --    0.78743   0.79391   0.80166   0.80767   0.82263

 Mulliken charges:
               1
     1  O   -0.510250
     2  H    0.253676
     3  H    0.256588
     4  O   -0.509794
     5  H    0.251857
     6  H    0.257924
 Sum of Mulliken charges =  -0.00000

 Dipole moment (field-independent basis, Debye):
    X=             -1.9472    Y=             -1.7377    Z=              0.0000  Tot=              2.6098
 Quadrupole moment (field-independent basis, Debye-Ang):
   XX=             -9.8277   YY=              3.2262   ZZ=            -14.7127
   XY=             -5.7509   XZ=              0.0000   YZ=              0.0000

 1798\MP4DQ=-152.6426284\MP4SDQ=-152.6456819\CCSD=-152.6450954\CCSD(T)=
 Normal termination of Gaussian 16 at Sat Aug 27 05:13:42 2022.
