 Gaussian 16, Revision A.03,
 Gaussian 16:  ES64L-G16RevA.03 25-Dec-2016

 ------------------
 #p CCSD(T)/cc-pVTZ
 ------------------

 ------------
 H2O_H2O_3330
 ------------
 Symbolic Z-matrix:
 Charge =  0 Multiplicity = 1

                         Standard orientation:
 ---------------------------------------------------------------------
 Center     Atomic      Atomic             Coordinates (Angstroms)
 Number     Number       Type             X           Y           Z
 ---------------------------------------------------------------------
      1          8           0        0.018360   -2.568675    0.000000
      2          1           0       -0.781562   -3.139315    0.000000
      3          1           0        0.817580   -3.140298    0.000000
      4          8           0        0.018360    2.574714    0.000000
      5          1           0        0.592404    3.372198    0.000000
      6          1           0       -0.922187    2.859100    0.000000
 ---------------------------------------------------------------------

 SCF Done:  E(RHF) =  -152.106340922     A.U. after   10 cycles
 E2 =    -0.5260001193D+00 EUMP2 =    -0.15263234104106D+03
 CCSD(T)
 CCSD(T)= -0.15265958220D+03

 The electronic state is 1-A'.
 Alpha  occ. eigenvalues --  -20.55007 -20.54955  -1.32301  -1.32248  -0.69710
 Alpha  occ. eigenvalues --   -0.69655  -0.55698  -0.55643  -0.49405  -0.49352
 Alpha virt. eigenvalues --    0.14429   0.14780   0.20558   0.20698   0.54804
 Alpha virt. eigenvalues --    0.54974   0.57676   0.57754   0.67784   0.69430
 Alpha virt. eigenvalues --    0.79469   0.79526   0.80903   0.81006   0.82755

 Mulliken charges:
               1
     1  O   -0.502595
     2  H    0.250556
     3  H    0.252041
     4  O   -0.502498
     5  H    0.250256
     6  H    0.252240
 Sum of Mulliken charges =  -0.00000

 Dipole moment (field-independent basis, Debye):
    X=             -0.6279    Y=             -0.1063    Z=              0.0000  Tot=              0.6369
 Quadrupole moment (field-independent basis, Debye-Ang):
   XX=             -8.0234   YY=              8.1765   ZZ=            -14.7101
   XY=             -1.0862   XZ=              0.0000   YZ=              0.0000

 Normal termination of Gaussian 16 at Fri Aug 26 21:25:30 2022.
