 Gaussian 16, Revision A.03,
 Gaussian 16:  ES64L-G16RevA.03 25-Dec-2016

 ------------------
 #p CCSD(T)/cc-pVTZ
 ------------------

 ------------
 H2O_H2O_1357
 ------------
 Symbolic Z-matrix:
 Charge =  0 Multiplicity = 1

                         Standard orientation:
 ---------------------------------------------------------------------
 Center     Atomic      Atomic             Coordinates (Angstroms)
 Number     Number       Type             X           Y           Z
 ---------------------------------------------------------------------
      1          8           0        0.025269   -1.515219    0.000000
      2          1           0       -0.775118   -2.085207    0.000000
      3          1           0        0.824023   -2.087493    0.000000
      4          8           0        0.025269    1.526926    0.000000
      5          1           0        0.491014    2.392135    0.000000
      6          1           0       -0.944222    1.686904    0.000000
 ---------------------------------------------------------------------

 SCF Done:  E(RHF) =  -152.102355003     A.U. after   11 cycles
 E2 =    -0.5273099698D+00 EUMP2 =    -0.15262966497319D+03
 CCSD(T)
 CCSD(T)= -0.15265693792D+03

 The electronic state is 1-A'.
 Alpha  occ. eigenvalues --  -20.54135 -20.53852  -1.31472  -1.31104  -0.68894
 Alpha  occ. eigenvalues --   -0.68540  -0.55635  -0.53310  -0.48640  -0.48107
 Alpha virt. eigenvalues --    0.14228   0.16666   0.20488   0.21988   0.52354
 Alpha virt. eigenvalues --    0.58245   0.58380   0.59063   0.65849   0.76718
 Alpha virt. eigenvalues --    0.77746   0.78728   0.79001   0.82537   0.85909

 Mulliken charges:
               1
     1  O   -0.476620
     2  H    0.234478
     3  H    0.242523
     4  O   -0.473738
     5  H    0.232331
     6  H    0.241026
 Sum of Mulliken charges =  -0.00000

 Dipole moment (field-independent basis, Debye):
    X=             -0.8273    Y=             -0.2212    Z=              0.0000  Tot=              0.8564
 Quadrupole moment (field-independent basis, Debye-Ang):
   XX=             -8.2840   YY=             -0.4628   ZZ=            -14.7114
   XY=             -0.6561   XZ=              0.0000   YZ=              0.0000

 09\MP4DQ=-152.638571\MP4SDQ=-152.6417169\CCSD=-152.6410945\CCSD(T)=-15
 Normal termination of Gaussian 16 at Sat Aug 27 04:12:27 2022.
