 Gaussian 16, Revision A.03,
 Gaussian 16:  ES64L-G16RevA.03 25-Dec-2016

 ------------------
 #p CCSD(T)/cc-pVTZ
 ------------------

 ------------
 H2O_H2O_4888
 ------------
 Symbolic Z-matrix:
 Charge =  0 Multiplicity = 1

                         Standard orientation:
 ---------------------------------------------------------------------
 Center     Atomic      Atomic             Coordinates (Angstroms)
 Number     Number       Type             X           Y           Z
 ---------------------------------------------------------------------
      1          8           0        0.042961   -3.375219    0.000000
      2          1           0       -0.757231   -3.945480    0.000000
      3          1           0        0.841910   -3.947222    0.000000
      4          8           0        0.042961    3.414038    0.000000
      5          1           0        0.141820    4.391654    0.000000
      6          1           0       -0.913877    3.190503    0.000000
 ---------------------------------------------------------------------

 SCF Done:  E(RHF) =  -152.107188172     A.U. after   10 cycles
 E2 =    -0.5258940830D+00 EUMP2 =    -0.15263308225534D+03
 CCSD(T)
 CCSD(T)= -0.15266030733D+03

 The electronic state is 1-A'.
 Alpha  occ. eigenvalues --  -20.55430 -20.55237  -1.32728  -1.32533  -0.70134
 Alpha  occ. eigenvalues --   -0.69937  -0.56165  -0.55971  -0.49838  -0.49644
 Alpha virt. eigenvalues --    0.14229   0.14422   0.20292   0.20494   0.54431
 Alpha virt. eigenvalues --    0.54636   0.57329   0.57523   0.68041   0.68239
 Alpha virt. eigenvalues --    0.79042   0.79233   0.80478   0.80686   0.82402

 Mulliken charges:
               1
     1  O   -0.507576
     2  H    0.253002
     3  H    0.254574
     4  O   -0.507453
     5  H    0.252445
     6  H    0.255008
 Sum of Mulliken charges =  -0.00000

 Dipole moment (field-independent basis, Debye):
    X=             -1.4778    Y=             -0.6764    Z=              0.0000  Tot=              1.6252
 Quadrupole moment (field-independent basis, Debye-Ang):
   XX=             -8.9642   YY=             11.6162   ZZ=            -14.7114
   XY=             -4.1883   XZ=              0.0000   YZ=              0.0000

 Normal termination of Gaussian 16 at Sat Aug 27 09:54:23 2022.
