 Gaussian 16, Revision A.03,
 Gaussian 16:  ES64L-G16RevA.03 25-Dec-2016

 ------------------
 #p CCSD(T)/cc-pVTZ
 ------------------

 ------------
 H2O_H2O_3033
 ------------
 Symbolic Z-matrix:
 Charge =  0 Multiplicity = 1

                         Standard orientation:
 ---------------------------------------------------------------------
 Center     Atomic      Atomic             Coordinates (Angstroms)
 Number     Number       Type             X           Y           Z
 ---------------------------------------------------------------------
      1          8           0        0.028564   -2.404124    0.000000
      2          1           0       -0.771588   -2.974441    0.000000
      3          1           0        0.827553   -2.976071    0.000000
      4          8           0        0.028564    2.419369    0.000000
      5          1           0        0.436360    3.313354    0.000000
      6          1           0       -0.949353    2.515195    0.000000
 ---------------------------------------------------------------------

 SCF Done:  E(RHF) =  -152.106273791     A.U. after   10 cycles
 E2 =    -0.5260282203D+00 EUMP2 =    -0.15263230201080D+03
 CCSD(T)
 CCSD(T)= -0.15265954281D+03

 The electronic state is 1-A'.
 Alpha  occ. eigenvalues --  -20.55010 -20.54857  -1.32303  -1.32148  -0.69713
 Alpha  occ. eigenvalues --   -0.69553  -0.55697  -0.55539  -0.49407  -0.49253
 Alpha virt. eigenvalues --    0.14294   0.14980   0.20513   0.20827   0.54716
 Alpha virt. eigenvalues --    0.55115   0.57664   0.57844   0.67011   0.70381
 Alpha virt. eigenvalues --    0.79462   0.79628   0.80875   0.81148   0.82657

 Mulliken charges:
               1
     1  O   -0.502189
     2  H    0.249720
     3  H    0.252487
     4  O   -0.501905
     5  H    0.249068
     6  H    0.252820
 Sum of Mulliken charges =  -0.00000

 Dipole moment (field-independent basis, Debye):
    X=             -0.9749    Y=             -0.2697    Z=              0.0000  Tot=              1.0115
 Quadrupole moment (field-independent basis, Debye-Ang):
   XX=             -8.3259   YY=              6.4292   ZZ=            -14.7102
   XY=             -1.6185   XZ=              0.0000   YZ=              0.0000

 Normal termination of Gaussian 16 at Fri Aug 26 18:42:52 2022.
