 Gaussian 16, Revision A.03,
 Gaussian 16:  ES64L-G16RevA.03 25-Dec-2016

 ------------------
 #p CCSD(T)/cc-pVTZ
 ------------------

 ------------
 H2O_H2O_1956
 ------------
 Symbolic Z-matrix:
 Charge =  0 Multiplicity = 1

                         Standard orientation:
 ---------------------------------------------------------------------
 Center     Atomic      Atomic             Coordinates (Angstroms)
 Number     Number       Type             X           Y           Z
 ---------------------------------------------------------------------
      1          8           0        0.021861   -1.835981    0.000000
      2          1           0       -0.778294   -2.406296    0.000000
      3          1           0        0.820847   -2.407931    0.000000
      4          8           0        0.021861    1.844632    0.000000
      5          1           0        0.542858    2.677739    0.000000
      6          1           0       -0.935182    2.067285    0.000000
 ---------------------------------------------------------------------

 SCF Done:  E(RHF) =  -152.104795960     A.U. after   10 cycles
 E2 =    -0.5264936943D+00 EUMP2 =    -0.15263128965439D+03
 CCSD(T)
 CCSD(T)= -0.15265853302D+03

 The electronic state is 1-A'.
 Alpha  occ. eigenvalues --  -20.54531 -20.54376  -1.31812  -1.31650  -0.69233
 Alpha  occ. eigenvalues --   -0.69064  -0.55370  -0.54675  -0.48921  -0.48734
 Alpha virt. eigenvalues --    0.14105   0.15949   0.20548   0.21382   0.53513
 Alpha virt. eigenvalues --    0.56425   0.57961   0.58311   0.61944   0.75780
 Alpha virt. eigenvalues --    0.79201   0.79743   0.80804   0.80827   0.83085

 Mulliken charges:
               1
     1  O   -0.490021
     2  H    0.243007
     3  H    0.247263
     4  O   -0.490016
     5  H    0.242292
     6  H    0.247476
 Sum of Mulliken charges =  -0.00000

 Dipole moment (field-independent basis, Debye):
    X=             -0.7336    Y=             -0.1592    Z=              0.0000  Tot=              0.7507
 Quadrupole moment (field-independent basis, Debye-Ang):
   XX=             -8.1430   YY=              2.2665   ZZ=            -14.7096
   XY=             -0.7754   XZ=              0.0000   YZ=              0.0000

 Normal termination of Gaussian 16 at Sat Aug 27 07:45:53 2022.
