 Gaussian 16, Revision A.03,
 Gaussian 16:  ES64L-G16RevA.03 25-Dec-2016

 ------------------
 #p CCSD(T)/cc-pVTZ
 ------------------

 ------------
 H2O_H2O_2273
 ------------
 Symbolic Z-matrix:
 Charge =  0 Multiplicity = 1

                         Standard orientation:
 ---------------------------------------------------------------------
 Center     Atomic      Atomic             Coordinates (Angstroms)
 Number     Number       Type             X           Y           Z
 ---------------------------------------------------------------------
      1          8           0        0.057122   -1.942404    0.000000
      2          1           0       -0.743851   -2.511569    0.000000
      3          1           0        0.855287   -2.515500    0.000000
      4          8           0        0.057122    2.048880    0.000000
      5          1           0       -0.458438    2.885363    0.000000
      6          1           0       -0.566950    1.289906    0.000000
 ---------------------------------------------------------------------

 SCF Done:  E(RHF) =  -152.108754265     A.U. after   10 cycles
 E2 =    -0.5261694350D+00 EUMP2 =    -0.15263492370044D+03
 CCSD(T)
 CCSD(T)= -0.15266207863D+03

 The electronic state is 1-A'.
 Alpha  occ. eigenvalues --  -20.56099 -20.54291  -1.33371  -1.31593  -0.70777
 Alpha  occ. eigenvalues --   -0.68962  -0.56852  -0.55062  -0.50493  -0.48721
 Alpha virt. eigenvalues --    0.12957   0.16084   0.19799   0.22983   0.53806
 Alpha virt. eigenvalues --    0.55038   0.56811   0.58571   0.66486   0.73243
 Alpha virt. eigenvalues --    0.78278   0.79280   0.80194   0.80788   0.82729

 Mulliken charges:
               1
     1  O   -0.505723
     2  H    0.250717
     3  H    0.258661
     4  O   -0.513559
     5  H    0.246628
     6  H    0.263276
 Sum of Mulliken charges =   0.00000

 Dipole moment (field-independent basis, Debye):
    X=             -1.9310    Y=             -1.9582    Z=              0.0000  Tot=              2.7502
 Quadrupole moment (field-independent basis, Debye-Ang):
   XX=             -9.8517   YY=             -1.6096   ZZ=            -14.7177
   XY=             -4.0731   XZ=              0.0000   YZ=              0.0000

 Normal termination of Gaussian 16 at Sat Aug 27 09:35:10 2022.
