 Gaussian 16, Revision A.03,
 Gaussian 16:  ES64L-G16RevA.03 25-Dec-2016

 ------------------
 #p CCSD(T)/cc-pVTZ
 ------------------

 ---------
 H2O_H2O_2
 ---------
 Symbolic Z-matrix:
 Charge =  0 Multiplicity = 1

                         Standard orientation:
 ---------------------------------------------------------------------
 Center     Atomic      Atomic             Coordinates (Angstroms)
 Number     Number       Type             X           Y           Z
 ---------------------------------------------------------------------
      1          8           0        0.007455   -0.803075    0.000000
      2          1           0       -0.792572   -1.373568    0.000000
      3          1           0        0.806570   -1.374845    0.000000
      4          8           0        0.007455    0.804040    0.000000
      5          1           0        0.726173    1.474077    0.000000
      6          1           0       -0.859455    1.266612    0.000000
 ---------------------------------------------------------------------

 SCF Done:  E(RHF) =  -151.904598810     A.U. after   12 cycles
 E2 =    -0.5540138326D+00 EUMP2 =    -0.15245861264278D+03
 CCSD(T)
 CCSD(T)= -0.15248243159D+03

 The electronic state is 1-A'.
 Alpha  occ. eigenvalues --  -20.51602 -20.51574  -1.37593  -1.26912  -0.71530
 Alpha  occ. eigenvalues --   -0.69432  -0.65316  -0.53525  -0.43127  -0.31389
 Alpha virt. eigenvalues --    0.14329   0.19562   0.20105   0.23024   0.50545
 Alpha virt. eigenvalues --    0.58427   0.59145   0.66006   0.68205   0.79066
 Alpha virt. eigenvalues --    0.80991   0.83781   0.83961   0.85598   0.88010

 Mulliken charges:
               1
     1  O   -0.324837
     2  H    0.157517
     3  H    0.167629
     4  O   -0.321794
     5  H    0.140007
     6  H    0.181477
 Sum of Mulliken charges =  -0.00000

 Dipole moment (field-independent basis, Debye):
    X=             -0.2183    Y=             -0.0294    Z=              0.0000  Tot=              0.2203
 Quadrupole moment (field-independent basis, Debye-Ang):
   XX=             -8.6619   YY=             -9.5682   ZZ=            -14.7896
   XY=             -0.1370   XZ=              0.0000   YZ=              0.0000

 229\MP4DQ=-152.4603917\MP4SDQ=-152.4649555\CCSD=-152.4634081\CCSD(T)=-
 Normal termination of Gaussian 16 at Fri Aug 26 11:47:36 2022.
