 Gaussian 16, Revision A.03,
 Gaussian 16:  ES64L-G16RevA.03 25-Dec-2016

 ------------------
 #p CCSD(T)/cc-pVTZ
 ------------------

 ------------
 H2O_H2O_1446
 ------------
 Symbolic Z-matrix:
 Charge =  0 Multiplicity = 1

                         Standard orientation:
 ---------------------------------------------------------------------
 Center     Atomic      Atomic             Coordinates (Angstroms)
 Number     Number       Type             X           Y           Z
 ---------------------------------------------------------------------
      1          8           0        0.056158   -1.511719    0.000000
      2          1           0       -0.745178   -2.080372    0.000000
      3          1           0        0.853957   -2.085323    0.000000
      4          8           0        0.056158    1.603313    0.000000
      5          1           0       -0.345236    2.500190    0.000000
      6          1           0       -0.662069    0.932748    0.000000
 ---------------------------------------------------------------------

 SCF Done:  E(RHF) =  -152.108298419     A.U. after   10 cycles
 E2 =    -0.5271723278D+00 EUMP2 =    -0.15263547074712D+03
 CCSD(T)
 CCSD(T)= -0.15266258700D+03

 The electronic state is 1-A'.
 Alpha  occ. eigenvalues --  -20.56138 -20.53480  -1.33439  -1.30776  -0.70846
 Alpha  occ. eigenvalues --   -0.68230  -0.56805  -0.54243  -0.50555  -0.47904
 Alpha virt. eigenvalues --    0.13182   0.17057   0.19725   0.24506   0.53043
 Alpha virt. eigenvalues --    0.55524   0.56842   0.58446   0.67874   0.75384
 Alpha virt. eigenvalues --    0.76208   0.76909   0.80387   0.81763   0.84371

 Mulliken charges:
               1
     1  O   -0.490967
     2  H    0.243189
     3  H    0.257827
     4  O   -0.507996
     5  H    0.236492
     6  H    0.261455
 Sum of Mulliken charges =  -0.00000

 Dipole moment (field-independent basis, Debye):
    X=             -1.8436    Y=             -1.7801    Z=              0.0000  Tot=              2.5628
 Quadrupole moment (field-independent basis, Debye-Ang):
   XX=             -9.7899   YY=             -2.8679   ZZ=            -14.7236
   XY=             -2.9288   XZ=              0.0000   YZ=              0.0000

 Normal termination of Gaussian 16 at Sat Aug 27 04:48:39 2022.
