 Gaussian 16, Revision A.03,
 Gaussian 16:  ES64L-G16RevA.03 25-Dec-2016

 ------------------
 #p CCSD(T)/cc-pVTZ
 ------------------

 -----------
 H2O_H2O_793
 -----------
 Symbolic Z-matrix:
 Charge =  0 Multiplicity = 1

                         Standard orientation:
 ---------------------------------------------------------------------
 Center     Atomic      Atomic             Coordinates (Angstroms)
 Number     Number       Type             X           Y           Z
 ---------------------------------------------------------------------
      1          8           0        0.052897   -1.177686    0.000000
      2          1           0       -0.748807   -1.745820    0.000000
      3          1           0        0.850324   -1.751809    0.000000
      4          8           0        0.052897    1.247805    0.000000
      5          1           0       -0.165189    2.205898    0.000000
      6          1           0       -0.782685    0.730786    0.000000
 ---------------------------------------------------------------------

 SCF Done:  E(RHF) =  -152.096517685     A.U. after   11 cycles
 E2 =    -0.5301114259D+00 EUMP2 =    -0.15262662911085D+03
 CCSD(T)
 CCSD(T)= -0.15265370547D+03

 The electronic state is 1-A'.
 Alpha  occ. eigenvalues --  -20.55321 -20.52478  -1.33175  -1.29751  -0.70558
 Alpha  occ. eigenvalues --   -0.68069  -0.56018  -0.52436  -0.50253  -0.46753
 Alpha virt. eigenvalues --    0.13556   0.17836   0.19827   0.24458   0.52254
 Alpha virt. eigenvalues --    0.57044   0.59605   0.60433   0.71318   0.74499
 Alpha virt. eigenvalues --    0.77658   0.82946   0.83260   0.84566   0.85895

 Mulliken charges:
               1
     1  O   -0.463017
     2  H    0.228056
     3  H    0.247033
     4  O   -0.476197
     5  H    0.211308
     6  H    0.252817
 Sum of Mulliken charges =  -0.00000

 Dipole moment (field-independent basis, Debye):
    X=             -1.6391    Y=             -1.4222    Z=              0.0000  Tot=              2.1701
 Quadrupole moment (field-independent basis, Debye-Ang):
   XX=             -9.6149   YY=             -4.3048   ZZ=            -14.7221
   XY=             -1.8098   XZ=              0.0000   YZ=              0.0000

 Normal termination of Gaussian 16 at Fri Aug 26 20:04:52 2022.
