 Gaussian 16, Revision A.03,
 Gaussian 16:  ES64L-G16RevA.03 25-Dec-2016

 ------------------
 #p CCSD(T)/cc-pVTZ
 ------------------

 ------------
 H2O_H2O_3718
 ------------
 Symbolic Z-matrix:
 Charge =  0 Multiplicity = 1

                         Standard orientation:
 ---------------------------------------------------------------------
 Center     Atomic      Atomic             Coordinates (Angstroms)
 Number     Number       Type             X           Y           Z
 ---------------------------------------------------------------------
      1          8           0        0.052823   -2.733192    0.000000
      2          1           0       -0.747684   -3.303011    0.000000
      3          1           0        0.851456   -3.305635    0.000000
      4          8           0        0.052823    2.803532    0.000000
      5          1           0       -0.167279    3.761166    0.000000
      6          1           0       -0.781669    2.284756    0.000000
 ---------------------------------------------------------------------

 SCF Done:  E(RHF) =  -152.107329226     A.U. after   10 cycles
 E2 =    -0.5259064184D+00 EUMP2 =    -0.15263323564438D+03
 CCSD(T)
 CCSD(T)= -0.15266045587D+03

 The electronic state is 1-A'.
 Alpha  occ. eigenvalues --  -20.55544 -20.55003  -1.32842  -1.32299  -0.70249
 Alpha  occ. eigenvalues --   -0.69695  -0.56286  -0.55740  -0.49953  -0.49412
 Alpha virt. eigenvalues --    0.14011   0.14748   0.20178   0.20806   0.54298
 Alpha virt. eigenvalues --    0.54874   0.57224   0.57753   0.67641   0.68765
 Alpha virt. eigenvalues --    0.78928   0.79458   0.80349   0.80822   0.82486

 Mulliken charges:
               1
     1  O   -0.508432
     2  H    0.252515
     3  H    0.255940
     4  O   -0.508011
     5  H    0.250910
     6  H    0.257078
 Sum of Mulliken charges =  -0.00000

 Dipole moment (field-independent basis, Debye):
    X=             -1.8112    Y=             -1.2365    Z=              0.0000  Tot=              2.1931
 Quadrupole moment (field-independent basis, Debye-Ang):
   XX=             -9.5590   YY=              4.9503   ZZ=            -14.7121
   XY=             -4.5463   XZ=              0.0000   YZ=              0.0000

 Normal termination of Gaussian 16 at Sat Aug 27 02:44:15 2022.
