 Gaussian 16, Revision A.03,
 Gaussian 16:  ES64L-G16RevA.03 25-Dec-2016

 ------------------
 #p CCSD(T)/cc-pVTZ
 ------------------

 -----------
 H2O_H2O_951
 -----------
 Symbolic Z-matrix:
 Charge =  0 Multiplicity = 1

                         Standard orientation:
 ---------------------------------------------------------------------
 Center     Atomic      Atomic             Coordinates (Angstroms)
 Number     Number       Type             X           Y           Z
 ---------------------------------------------------------------------
      1          8           0        0.003735   -1.308712    0.000000
      2          1           0       -0.795976   -1.879647    0.000000
      3          1           0        0.803166   -1.880040    0.000000
      4          8           0        0.003735    1.308954    0.000000
      5          1           0        0.764394    1.930971    0.000000
      6          1           0       -0.831350    1.826775    0.000000
 ---------------------------------------------------------------------

 SCF Done:  E(RHF) =  -152.095483616     A.U. after   10 cycles
 E2 =    -0.5285933990D+00 EUMP2 =    -0.15262407701543D+03
 CCSD(T)
 CCSD(T)= -0.15265139538D+03

 The electronic state is 1-A'.
 Alpha  occ. eigenvalues --  -20.53276 -20.53269  -1.31028  -1.30382  -0.68360
 Alpha  occ. eigenvalues --   -0.67918  -0.56518  -0.50900  -0.48301  -0.47196
 Alpha virt. eigenvalues --    0.14484   0.17312   0.20572   0.22212   0.50556
 Alpha virt. eigenvalues --    0.58686   0.58848   0.62420   0.72795   0.76695
 Alpha virt. eigenvalues --    0.76807   0.78690   0.81123   0.83761   0.86420

 Mulliken charges:
               1
     1  O   -0.462432
     2  H    0.230357
     3  H    0.232039
     4  O   -0.462141
     5  H    0.230248
     6  H    0.231929
 Sum of Mulliken charges =  -0.00000

 Dipole moment (field-independent basis, Debye):
    X=             -0.1186    Y=             -0.0047    Z=              0.0000  Tot=              0.1187
 Quadrupole moment (field-independent basis, Debye-Ang):
   XX=             -7.9661   YY=             -2.2548   ZZ=            -14.7196
   XY=             -0.0594   XZ=              0.0000   YZ=              0.0000

 Normal termination of Gaussian 16 at Fri Aug 26 21:27:31 2022.
