 Gaussian 16, Revision A.03,
 Gaussian 16:  ES64L-G16RevA.03 25-Dec-2016

 ------------------
 #p CCSD(T)/cc-pVTZ
 ------------------

 ------------
 H2O_H2O_2747
 ------------
 Symbolic Z-matrix:
 Charge =  0 Multiplicity = 1

                         Standard orientation:
 ---------------------------------------------------------------------
 Center     Atomic      Atomic             Coordinates (Angstroms)
 Number     Number       Type             X           Y           Z
 ---------------------------------------------------------------------
      1          8           0        0.056732   -2.199048    0.000000
      2          1           0       -0.744075   -2.768445    0.000000
      3          1           0        0.855063   -2.771912    0.000000
      4          8           0        0.056732    2.298119    0.000000
      5          1           0       -0.403268    3.166397    0.000000
      6          1           0       -0.615434    1.581391    0.000000
 ---------------------------------------------------------------------

 SCF Done:  E(RHF) =  -152.108069391     A.U. after   10 cycles
 E2 =    -0.5259970761D+00 EUMP2 =    -0.15263406646737D+03
 CCSD(T)
 CCSD(T)= -0.15266125375D+03

 The electronic state is 1-A'.
 Alpha  occ. eigenvalues --  -20.55863 -20.54613  -1.33150  -1.31912  -0.70556
 Alpha  occ. eigenvalues --   -0.69291  -0.56615  -0.55368  -0.50266  -0.49033
 Alpha virt. eigenvalues --    0.13198   0.15549   0.19929   0.21776   0.53974
 Alpha virt. eigenvalues --    0.54789   0.57003   0.58149   0.66514   0.71451
 Alpha virt. eigenvalues --    0.78624   0.79537   0.79824   0.80656   0.82675

 Mulliken charges:
               1
     1  O   -0.509163
     2  H    0.252104
     3  H    0.258277
     4  O   -0.510972
     5  H    0.248703
     6  H    0.261050
 Sum of Mulliken charges =  -0.00000

 Dipole moment (field-independent basis, Debye):
    X=             -1.9316    Y=             -1.7822    Z=              0.0000  Tot=              2.6282
 Quadrupole moment (field-independent basis, Debye-Ang):
   XX=             -9.8258   YY=              0.0398   ZZ=            -14.7150
   XY=             -4.3957   XZ=              0.0000   YZ=              0.0000

 Normal termination of Gaussian 16 at Fri Aug 26 15:42:59 2022.
