 Gaussian 16, Revision A.03,
 Gaussian 16:  ES64L-G16RevA.03 25-Dec-2016

 ------------------
 #p CCSD(T)/cc-pVTZ
 ------------------

 ------------
 H2O_H2O_2491
 ------------
 Symbolic Z-matrix:
 Charge =  0 Multiplicity = 1

                         Standard orientation:
 ---------------------------------------------------------------------
 Center     Atomic      Atomic             Coordinates (Angstroms)
 Number     Number       Type             X           Y           Z
 ---------------------------------------------------------------------
      1          8           0        0.049519   -2.088983    0.000000
      2          1           0       -0.751199   -2.658506    0.000000
      3          1           0        0.847940   -2.661721    0.000000
      4          8           0        0.049519    2.145897    0.000000
      5          1           0       -0.043343    3.124102    0.000000
      6          1           0       -0.845698    1.740813    0.000000
 ---------------------------------------------------------------------

 SCF Done:  E(RHF) =  -152.106934039     A.U. after   10 cycles
 E2 =    -0.5261120568D+00 EUMP2 =    -0.15263304609596D+03
 CCSD(T)
 CCSD(T)= -0.15266025745D+03

 The electronic state is 1-A'.
 Alpha  occ. eigenvalues --  -20.55369 -20.54574  -1.32656  -1.31860  -0.70067
 Alpha  occ. eigenvalues --   -0.69245  -0.56069  -0.55274  -0.49764  -0.48974
 Alpha virt. eigenvalues --    0.13568   0.15615   0.20182   0.21537   0.53959
 Alpha virt. eigenvalues --    0.54885   0.57401   0.58132   0.65572   0.73608
 Alpha virt. eigenvalues --    0.79067   0.79938   0.79983   0.81952   0.83242

 Mulliken charges:
               1
     1  O   -0.503682
     2  H    0.248874
     3  H    0.255570
     4  O   -0.504497
     5  H    0.246527
     6  H    0.257209
 Sum of Mulliken charges =  -0.00000

 Dipole moment (field-independent basis, Debye):
    X=             -1.6796    Y=             -1.0271    Z=              0.0000  Tot=              1.9687
 Quadrupole moment (field-independent basis, Debye-Ang):
   XX=             -9.3495   YY=              2.1070   ZZ=            -14.7127
   XY=             -2.9636   XZ=              0.0000   YZ=              0.0000

 Normal termination of Gaussian 16 at Sat Aug 27 10:51:04 2022.
