 Gaussian 16, Revision A.03,
 Gaussian 16:  ES64L-G16RevA.03 25-Dec-2016

 ------------------
 #p CCSD(T)/cc-pVTZ
 ------------------

 ------------
 H2O_H2O_1626
 ------------
 Symbolic Z-matrix:
 Charge =  0 Multiplicity = 1

                         Standard orientation:
 ---------------------------------------------------------------------
 Center     Atomic      Atomic             Coordinates (Angstroms)
 Number     Number       Type             X           Y           Z
 ---------------------------------------------------------------------
      1          8           0        0.003735   -1.667701    0.000000
      2          1           0       -0.795946   -2.238679    0.000000
      3          1           0        0.803196   -2.238987    0.000000
      4          8           0        0.003735    1.667944    0.000000
      5          1           0        0.764361    2.290001    0.000000
      6          1           0       -0.831378    2.185720    0.000000
 ---------------------------------------------------------------------

 SCF Done:  E(RHF) =  -152.103327564     A.U. after   10 cycles
 E2 =    -0.5268554906D+00 EUMP2 =    -0.15263018305478D+03
 CCSD(T)
 CCSD(T)= -0.15265745181D+03

 The electronic state is 1-A'.
 Alpha  occ. eigenvalues --  -20.54152 -20.54147  -1.31478  -1.31386  -0.68899
 Alpha  occ. eigenvalues --   -0.68824  -0.55364  -0.53926  -0.48635  -0.48406
 Alpha virt. eigenvalues --    0.14297   0.16299   0.20594   0.21557   0.52807
 Alpha virt. eigenvalues --    0.58093   0.58378   0.58517   0.61935   0.76006
 Alpha virt. eigenvalues --    0.78661   0.78830   0.79886   0.81722   0.84983

 Mulliken charges:
               1
     1  O   -0.480705
     2  H    0.239888
     3  H    0.240827
     4  O   -0.480690
     5  H    0.239864
     6  H    0.240816
 Sum of Mulliken charges =  -0.00000

 Dipole moment (field-independent basis, Debye):
    X=             -0.1241    Y=             -0.0045    Z=              0.0000  Tot=              0.1242
 Quadrupole moment (field-independent basis, Debye-Ang):
   XX=             -7.8777   YY=              1.0470   ZZ=            -14.7088
   XY=             -0.1016   XZ=              0.0000   YZ=              0.0000

 Normal termination of Gaussian 16 at Sat Aug 27 05:51:22 2022.
