 Gaussian 16, Revision A.03,
 Gaussian 16:  ES64L-G16RevA.03 25-Dec-2016

 ------------------
 #p CCSD(T)/cc-pVTZ
 ------------------

 -----------
 H2O_H2O_868
 -----------
 Symbolic Z-matrix:
 Charge =  0 Multiplicity = 1

                         Standard orientation:
 ---------------------------------------------------------------------
 Center     Atomic      Atomic             Coordinates (Angstroms)
 Number     Number       Type             X           Y           Z
 ---------------------------------------------------------------------
      1          8           0        0.052893   -1.217568    0.000000
      2          1           0       -0.748744   -1.785797    0.000000
      3          1           0        0.850388   -1.791596    0.000000
      4          8           0        0.052893    1.287699    0.000000
      5          1           0       -0.165308    2.245766    0.000000
      6          1           0       -0.782628    0.770580    0.000000
 ---------------------------------------------------------------------

 SCF Done:  E(RHF) =  -152.099371593     A.U. after   11 cycles
 E2 =    -0.5295011075D+00 EUMP2 =    -0.15262887270040D+03
 CCSD(T)
 CCSD(T)= -0.15265597579D+03

 The electronic state is 1-A'.
 Alpha  occ. eigenvalues --  -20.55389 -20.52664  -1.33087  -1.29938  -0.70480
 Alpha  occ. eigenvalues --   -0.68013  -0.56104  -0.52788  -0.50184  -0.46963
 Alpha virt. eigenvalues --    0.13546   0.17710   0.19845   0.24355   0.52431
 Alpha virt. eigenvalues --    0.57094   0.59392   0.59781   0.71150   0.74604
 Alpha virt. eigenvalues --    0.77172   0.82621   0.82911   0.83895   0.84637

 Mulliken charges:
               1
     1  O   -0.468582
     2  H    0.230705
     3  H    0.249278
     4  O   -0.480324
     5  H    0.215555
     6  H    0.253368
 Sum of Mulliken charges =  -0.00000

 Dipole moment (field-independent basis, Debye):
    X=             -1.6543    Y=             -1.4121    Z=              0.0000  Tot=              2.1750
 Quadrupole moment (field-independent basis, Debye-Ang):
   XX=             -9.6099   YY=             -3.9983   ZZ=            -14.7237
   XY=             -1.8789   XZ=              0.0000   YZ=              0.0000

 Normal termination of Gaussian 16 at Fri Aug 26 20:42:57 2022.
