 Gaussian 16, Revision A.03,
 Gaussian 16:  ES64L-G16RevA.03 25-Dec-2016

 ------------------
 #p CCSD(T)/cc-pVTZ
 ------------------

 ------------
 H2O_H2O_3968
 ------------
 Symbolic Z-matrix:
 Charge =  0 Multiplicity = 1

                         Standard orientation:
 ---------------------------------------------------------------------
 Center     Atomic      Atomic             Coordinates (Angstroms)
 Number     Number       Type             X           Y           Z
 ---------------------------------------------------------------------
      1          8           0        0.052821   -2.866147    0.000000
      2          1           0       -0.747643   -3.436026    0.000000
      3          1           0        0.851497   -3.438530    0.000000
      4          8           0        0.052821    2.936495    0.000000
      5          1           0       -0.167354    3.894111    0.000000
      6          1           0       -0.781633    2.417656    0.000000
 ---------------------------------------------------------------------

 SCF Done:  E(RHF) =  -152.107343468     A.U. after   10 cycles
 E2 =    -0.5258962138D+00 EUMP2 =    -0.15263323968213D+03
 CCSD(T)
 CCSD(T)= -0.15266046035D+03

 The electronic state is 1-A'.
 Alpha  occ. eigenvalues --  -20.55551 -20.55062  -1.32849  -1.32358  -0.70256
 Alpha  occ. eigenvalues --   -0.69756  -0.56294  -0.55801  -0.49960  -0.49471
 Alpha virt. eigenvalues --    0.14063   0.14650   0.20182   0.20728   0.54300
 Alpha virt. eigenvalues --    0.54820   0.57218   0.57705   0.67775   0.68535
 Alpha virt. eigenvalues --    0.78920   0.79400   0.80349   0.80831   0.82359

 Mulliken charges:
               1
     1  O   -0.508526
     2  H    0.252774
     3  H    0.255760
     4  O   -0.508168
     5  H    0.251373
     6  H    0.256787
 Sum of Mulliken charges =  -0.00000

 Dipole moment (field-independent basis, Debye):
    X=             -1.8129    Y=             -1.2335    Z=              0.0000  Tot=              2.1928
 Quadrupole moment (field-independent basis, Debye-Ang):
   XX=             -9.5591   YY=              5.6878   ZZ=            -14.7120
   XY=             -4.7852   XZ=              0.0000   YZ=              0.0000

 Normal termination of Gaussian 16 at Sat Aug 27 04:38:09 2022.
