 Gaussian 16, Revision A.03,
 Gaussian 16:  ES64L-G16RevA.03 25-Dec-2016

 ------------------
 #p CCSD(T)/cc-pVTZ
 ------------------

 ------------
 H2O_H2O_1041
 ------------
 Symbolic Z-matrix:
 Charge =  0 Multiplicity = 1

                         Standard orientation:
 ---------------------------------------------------------------------
 Center     Atomic      Atomic             Coordinates (Angstroms)
 Number     Number       Type             X           Y           Z
 ---------------------------------------------------------------------
      1          8           0        0.049552   -1.317880    0.000000
      2          1           0       -0.751822   -1.886480    0.000000
      3          1           0        0.847312   -1.891538    0.000000
      4          8           0        0.049552    1.374680    0.000000
      5          1           0       -0.042184    2.352990    0.000000
      6          1           0       -0.846131    0.970627    0.000000
 ---------------------------------------------------------------------

 SCF Done:  E(RHF) =  -152.102408315     A.U. after   10 cycles
 E2 =    -0.5283532234D+00 EUMP2 =    -0.15263076153840D+03
 CCSD(T)
 CCSD(T)= -0.15265794099D+03

 The electronic state is 1-A'.
 Alpha  occ. eigenvalues --  -20.55066 -20.53186  -1.32527  -1.30432  -0.69940
 Alpha  occ. eigenvalues --   -0.68038  -0.56159  -0.53142  -0.49660  -0.47477
 Alpha virt. eigenvalues --    0.13722   0.17293   0.20018   0.23578   0.53387
 Alpha virt. eigenvalues --    0.57484   0.58374   0.58595   0.70186   0.75613
 Alpha virt. eigenvalues --    0.76382   0.78036   0.82201   0.82864   0.85078

 Mulliken charges:
               1
     1  O   -0.476388
     2  H    0.232937
     3  H    0.250276
     4  O   -0.478495
     5  H    0.221666
     6  H    0.250003
 Sum of Mulliken charges =  -0.00000

 Dipole moment (field-independent basis, Debye):
    X=             -1.5779    Y=             -1.1136    Z=              0.0000  Tot=              1.9313
 Quadrupole moment (field-independent basis, Debye-Ang):
   XX=             -9.4037   YY=             -2.9255   ZZ=            -14.7227
   XY=             -1.7023   XZ=              0.0000   YZ=              0.0000

 Normal termination of Gaussian 16 at Sat Aug 27 01:36:55 2022.
