 Gaussian 16, Revision A.03,
 Gaussian 16:  ES64L-G16RevA.03 25-Dec-2016

 ------------------
 #p CCSD(T)/cc-pVTZ
 ------------------

 ------------
 H2O_H2O_4130
 ------------
 Symbolic Z-matrix:
 Charge =  0 Multiplicity = 1

                         Standard orientation:
 ---------------------------------------------------------------------
 Center     Atomic      Atomic             Coordinates (Angstroms)
 Number     Number       Type             X           Y           Z
 ---------------------------------------------------------------------
      1          8           0        0.018360   -2.994142    0.000000
      2          1           0       -0.781512   -3.564852    0.000000
      3          1           0        0.817630   -3.565696    0.000000
      4          8           0        0.018360    3.000185    0.000000
      5          1           0        0.592335    3.797718    0.000000
      6          1           0       -0.922212    3.284489    0.000000
 ---------------------------------------------------------------------

 SCF Done:  E(RHF) =  -152.106753924     A.U. after   10 cycles
 E2 =    -0.5259405362D+00 EUMP2 =    -0.15263269446029D+03
 CCSD(T)
 CCSD(T)= -0.15265992826D+03

 The electronic state is 1-A'.
 Alpha  occ. eigenvalues --  -20.55172 -20.55134  -1.32468  -1.32429  -0.69875
 Alpha  occ. eigenvalues --   -0.69835  -0.55885  -0.55846  -0.49575  -0.49536
 Alpha virt. eigenvalues --    0.14432   0.14507   0.20487   0.20536   0.54692
 Alpha virt. eigenvalues --    0.54739   0.57554   0.57595   0.68294   0.68458
 Alpha virt. eigenvalues --    0.79304   0.79342   0.80749   0.80792   0.82679

 Mulliken charges:
               1
     1  O   -0.505011
     2  H    0.252022
     3  H    0.252989
     4  O   -0.504965
     5  H    0.251804
     6  H    0.253161
 Sum of Mulliken charges =  -0.00000

 Dipole moment (field-independent basis, Debye):
    X=             -0.6302    Y=             -0.1056    Z=              0.0000  Tot=              0.6390
 Quadrupole moment (field-independent basis, Debye-Ang):
   XX=             -8.0167   YY=             11.5112   ZZ=            -14.7106
   XY=             -1.3511   XZ=              0.0000   YZ=              0.0000

 Normal termination of Gaussian 16 at Sat Aug 27 05:32:53 2022.
