 Gaussian 16, Revision A.03,
 Gaussian 16:  ES64L-G16RevA.03 25-Dec-2016

 ------------------
 #p CCSD(T)/cc-pVTZ
 ------------------

 -----------
 H2O_H2O_337
 -----------
 Symbolic Z-matrix:
 Charge =  0 Multiplicity = 1

                         Standard orientation:
 ---------------------------------------------------------------------
 Center     Atomic      Atomic             Coordinates (Angstroms)
 Number     Number       Type             X           Y           Z
 ---------------------------------------------------------------------
      1          8           0        0.040445   -0.958428    0.000000
      2          1           0       -0.761158   -1.526705    0.000000
      3          1           0        0.837974   -1.532407    0.000000
      4          8           0        0.040445    0.991596    0.000000
      5          1           0        0.205430    1.960248    0.000000
      6          1           0       -0.929359    0.833522    0.000000
 ---------------------------------------------------------------------

 SCF Done:  E(RHF) =  -152.047217245     A.U. after   11 cycles
 E2 =    -0.5364449887D+00 EUMP2 =    -0.15258366223335D+03
 CCSD(T)
 CCSD(T)= -0.15261033727D+03

 The electronic state is 1-A'.
 Alpha  occ. eigenvalues --  -20.52940 -20.51766  -1.33286  -1.28382  -0.70265
 Alpha  occ. eigenvalues --   -0.67798  -0.58854  -0.50218  -0.45012  -0.44973
 Alpha virt. eigenvalues --    0.14224   0.18289   0.20075   0.23621   0.53327
 Alpha virt. eigenvalues --    0.57178   0.58462   0.63955   0.71724   0.76825
 Alpha virt. eigenvalues --    0.79934   0.81973   0.83321   0.85259   0.88347

 Mulliken charges:
               1
     1  O   -0.427939
     2  H    0.203198
     3  H    0.223696
     4  O   -0.400843
     5  H    0.166831
     6  H    0.235057
 Sum of Mulliken charges =  -0.00000

 Dipole moment (field-independent basis, Debye):
    X=             -1.1569    Y=             -0.6896    Z=              0.0000  Tot=              1.3469
 Quadrupole moment (field-independent basis, Debye-Ang):
   XX=             -9.0515   YY=             -6.1378   ZZ=            -14.7165
   XY=             -0.6536   XZ=              0.0000   YZ=              0.0000

 Normal termination of Gaussian 16 at Fri Aug 26 15:25:20 2022.
