 Gaussian 16, Revision A.03,
 Gaussian 16:  ES64L-G16RevA.03 25-Dec-2016

 ------------------
 #p CCSD(T)/cc-pVTZ
 ------------------

 ------------
 H2O_H2O_4363
 ------------
 Symbolic Z-matrix:
 Charge =  0 Multiplicity = 1

                         Standard orientation:
 ---------------------------------------------------------------------
 Center     Atomic      Atomic             Coordinates (Angstroms)
 Number     Number       Type             X           Y           Z
 ---------------------------------------------------------------------
      1          8           0        0.042963   -3.096009    0.000000
      2          1           0       -0.757285   -3.666192    0.000000
      3          1           0        0.841856   -3.668090    0.000000
      4          8           0        0.042963    3.134819    0.000000
      5          1           0        0.141917    4.112426    0.000000
      6          1           0       -0.913897    2.911378    0.000000
 ---------------------------------------------------------------------

 SCF Done:  E(RHF) =  -152.107101207     A.U. after   10 cycles
 E2 =    -0.5259079405D+00 EUMP2 =    -0.15263300914794D+03
 CCSD(T)
 CCSD(T)= -0.15266023568D+03

 The electronic state is 1-A'.
 Alpha  occ. eigenvalues --  -20.55389 -20.55158  -1.32686  -1.32454  -0.70093
 Alpha  occ. eigenvalues --   -0.69856  -0.56119  -0.55887  -0.49795  -0.49564
 Alpha virt. eigenvalues --    0.14255   0.14500   0.20319   0.20566   0.54472
 Alpha virt. eigenvalues --    0.54721   0.57364   0.57596   0.68078   0.68346
 Alpha virt. eigenvalues --    0.79084   0.79312   0.80521   0.80772   0.82449

 Mulliken charges:
               1
     1  O   -0.507074
     2  H    0.252529
     3  H    0.254545
     4  O   -0.506896
     5  H    0.251829
     6  H    0.255067
 Sum of Mulliken charges =  -0.00000

 Dipole moment (field-independent basis, Debye):
    X=             -1.4761    Y=             -0.6780    Z=              0.0000  Tot=              1.6244
 Quadrupole moment (field-independent basis, Debye-Ang):
   XX=             -8.9647   YY=              9.7649   ZZ=            -14.7113
   XY=             -3.7787   XZ=              0.0000   YZ=              0.0000

 Normal termination of Gaussian 16 at Sat Aug 27 06:53:30 2022.
