 Gaussian 16, Revision A.03,
 Gaussian 16:  ES64L-G16RevA.03 25-Dec-2016

 ------------------
 #p CCSD(T)/cc-pVTZ
 ------------------

 ------------
 H2O_H2O_3280
 ------------
 Symbolic Z-matrix:
 Charge =  0 Multiplicity = 1

                         Standard orientation:
 ---------------------------------------------------------------------
 Center     Atomic      Atomic             Coordinates (Angstroms)
 Number     Number       Type             X           Y           Z
 ---------------------------------------------------------------------
      1          8           0        0.018360   -2.542083    0.000000
      2          1           0       -0.781565   -3.112718    0.000000
      3          1           0        0.817576   -3.113711    0.000000
      4          8           0        0.018360    2.548122    0.000000
      5          1           0        0.592410    3.345602    0.000000
      6          1           0       -0.922185    2.832515    0.000000
 ---------------------------------------------------------------------

 SCF Done:  E(RHF) =  -152.106306511     A.U. after   10 cycles
 E2 =    -0.5260057143D+00 EUMP2 =    -0.15263231222531D+03
 CCSD(T)
 CCSD(T)= -0.15265955393D+03

 The electronic state is 1-A'.
 Alpha  occ. eigenvalues --  -20.54994 -20.54941  -1.32288  -1.32234  -0.69698
 Alpha  occ. eigenvalues --   -0.69641  -0.55684  -0.55627  -0.49392  -0.49338
 Alpha virt. eigenvalues --    0.14423   0.14806   0.20561   0.20712   0.54807
 Alpha virt. eigenvalues --    0.54997   0.57684   0.57767   0.67689   0.69560
 Alpha virt. eigenvalues --    0.79481   0.79541   0.80913   0.81025   0.82743

 Mulliken charges:
               1
     1  O   -0.502393
     2  H    0.250433
     3  H    0.251962
     4  O   -0.502291
     5  H    0.250127
     6  H    0.252162
 Sum of Mulliken charges =  -0.00000

 Dipole moment (field-independent basis, Debye):
    X=             -0.6277    Y=             -0.1064    Z=              0.0000  Tot=              0.6367
 Quadrupole moment (field-independent basis, Debye-Ang):
   XX=             -8.0240   YY=              7.9671   ZZ=            -14.7101
   XY=             -1.0697   XZ=              0.0000   YZ=              0.0000

 Normal termination of Gaussian 16 at Fri Aug 26 20:59:35 2022.
