 Gaussian 16, Revision A.03,
 Gaussian 16:  ES64L-G16RevA.03 25-Dec-2016

 ------------------
 #p CCSD(T)/cc-pVTZ
 ------------------

 ------------
 H2O_H2O_3693
 ------------
 Symbolic Z-matrix:
 Charge =  0 Multiplicity = 1

                         Standard orientation:
 ---------------------------------------------------------------------
 Center     Atomic      Atomic             Coordinates (Angstroms)
 Number     Number       Type             X           Y           Z
 ---------------------------------------------------------------------
      1          8           0        0.052824   -2.719896    0.000000
      2          1           0       -0.747688   -3.289709    0.000000
      3          1           0        0.851452   -3.292346    0.000000
      4          8           0        0.052824    2.790236    0.000000
      5          1           0       -0.167272    3.747870    0.000000
      6          1           0       -0.781673    2.271466    0.000000
 ---------------------------------------------------------------------

 SCF Done:  E(RHF) =  -152.107327944     A.U. after   10 cycles
 E2 =    -0.5259076139D+00 EUMP2 =    -0.15263323555819D+03
 CCSD(T)
 CCSD(T)= -0.15266045571D+03

 The electronic state is 1-A'.
 Alpha  occ. eigenvalues --  -20.55543 -20.54997  -1.32841  -1.32293  -0.70248
 Alpha  occ. eigenvalues --   -0.69689  -0.56285  -0.55734  -0.49952  -0.49406
 Alpha virt. eigenvalues --    0.14004   0.14759   0.20177   0.20815   0.54297
 Alpha virt. eigenvalues --    0.54880   0.57224   0.57758   0.67624   0.68795
 Alpha virt. eigenvalues --    0.78929   0.79464   0.80348   0.80820   0.82503

 Mulliken charges:
               1
     1  O   -0.508421
     2  H    0.252486
     3  H    0.255959
     4  O   -0.507994
     5  H    0.250859
     6  H    0.257110
 Sum of Mulliken charges =  -0.00000

 Dipole moment (field-independent basis, Debye):
    X=             -1.8111    Y=             -1.2368    Z=              0.0000  Tot=              2.1931
 Quadrupole moment (field-independent basis, Debye-Ang):
   XX=             -9.5590   YY=              4.8765   ZZ=            -14.7121
   XY=             -4.5224   XZ=              0.0000   YZ=              0.0000

 Normal termination of Gaussian 16 at Sat Aug 27 02:32:41 2022.
