 Gaussian 16, Revision A.03,
 Gaussian 16:  ES64L-G16RevA.03 25-Dec-2016

 ------------------
 #p CCSD(T)/cc-pVTZ
 ------------------

 -----------
 H2O_H2O_969
 -----------
 Symbolic Z-matrix:
 Charge =  0 Multiplicity = 1

                         Standard orientation:
 ---------------------------------------------------------------------
 Center     Atomic      Atomic             Coordinates (Angstroms)
 Number     Number       Type             X           Y           Z
 ---------------------------------------------------------------------
      1          8           0        0.054220   -1.266954    0.000000
      2          1           0       -0.747382   -1.835231    0.000000
      3          1           0        0.851749   -1.840934    0.000000
      4          8           0        0.054220    1.344077    0.000000
      5          1           0       -0.226232    2.285806    0.000000
      6          1           0       -0.745656    0.773372    0.000000
 ---------------------------------------------------------------------

 SCF Done:  E(RHF) =  -152.102600349     A.U. after   10 cycles
 E2 =    -0.5289320597D+00 EUMP2 =    -0.15263153240894D+03
 CCSD(T)
 CCSD(T)= -0.15265863079D+03

 The electronic state is 1-A'.
 Alpha  occ. eigenvalues --  -20.55706 -20.52780  -1.33269  -1.30074  -0.70669
 Alpha  occ. eigenvalues --   -0.68004  -0.56218  -0.53285  -0.50366  -0.47138
 Alpha virt. eigenvalues --    0.13427   0.17636   0.19783   0.24546   0.52362
 Alpha virt. eigenvalues --    0.56951   0.58874   0.59465   0.70932   0.74598
 Alpha virt. eigenvalues --    0.76244   0.81631   0.82701   0.82764   0.84501

 Mulliken charges:
               1
     1  O   -0.474035
     2  H    0.234309
     3  H    0.252350
     4  O   -0.490163
     5  H    0.221248
     6  H    0.256291
 Sum of Mulliken charges =  -0.00000

 Dipole moment (field-independent basis, Debye):
    X=             -1.7150    Y=             -1.5512    Z=              0.0000  Tot=              2.3124
 Quadrupole moment (field-independent basis, Debye-Ang):
   XX=             -9.6825   YY=             -3.8309   ZZ=            -14.7245
   XY=             -2.1383   XZ=              0.0000   YZ=              0.0000

 Normal termination of Gaussian 16 at Fri Aug 26 21:36:55 2022.
