 Gaussian 16, Revision A.03,
 Gaussian 16:  ES64L-G16RevA.03 25-Dec-2016

 ------------------
 #p CCSD(T)/cc-pVTZ
 ------------------

 -----------
 H2O_H2O_468
 -----------
 Symbolic Z-matrix:
 Charge =  0 Multiplicity = 1

                         Standard orientation:
 ---------------------------------------------------------------------
 Center     Atomic      Atomic             Coordinates (Angstroms)
 Number     Number       Type             X           Y           Z
 ---------------------------------------------------------------------
      1          8           0        0.052919   -1.004874    0.000000
      2          1           0       -0.749139   -1.572508    0.000000
      3          1           0        0.849988   -1.579493    0.000000
      4          8           0        0.052919    1.074926    0.000000
      5          1           0       -0.164571    2.033156    0.000000
      6          1           0       -0.782985    0.558428    0.000000
 ---------------------------------------------------------------------

 SCF Done:  E(RHF) =  -152.067887908     A.U. after   11 cycles
 E2 =    -0.5346650159D+00 EUMP2 =    -0.15260255292414D+03
 CCSD(T)
 CCSD(T)= -0.15262931921D+03

 The electronic state is 1-A'.
 Alpha  occ. eigenvalues --  -20.54829 -20.51455  -1.34184  -1.28626  -0.71597
 Alpha  occ. eigenvalues --   -0.68830  -0.55361  -0.50953  -0.49718  -0.45522
 Alpha virt. eigenvalues --    0.13606   0.18447   0.19693   0.24804   0.51652
 Alpha virt. eigenvalues --    0.56586   0.60394   0.63317   0.72072   0.75111
 Alpha virt. eigenvalues --    0.79487   0.82446   0.84114   0.84374   0.87895

 Mulliken charges:
               1
     1  O   -0.422544
     2  H    0.206819
     3  H    0.233195
     4  O   -0.450054
     5  H    0.183939
     6  H    0.248645
 Sum of Mulliken charges =  -0.00000

 Dipole moment (field-independent basis, Debye):
    X=             -1.5519    Y=             -1.4812    Z=              0.0000  Tot=              2.1453
 Quadrupole moment (field-independent basis, Debye-Ang):
   XX=             -9.6401   YY=             -5.8418   ZZ=            -14.6962
   XY=             -1.4991   XZ=              0.0000   YZ=              0.0000

 Normal termination of Gaussian 16 at Fri Aug 26 16:44:48 2022.
