 Gaussian 16, Revision A.03,
 Gaussian 16:  ES64L-G16RevA.03 25-Dec-2016

 ------------------
 #p CCSD(T)/cc-pVTZ
 ------------------

 ------------
 H2O_H2O_3139
 ------------
 Symbolic Z-matrix:
 Charge =  0 Multiplicity = 1

                         Standard orientation:
 ---------------------------------------------------------------------
 Center     Atomic      Atomic             Coordinates (Angstroms)
 Number     Number       Type             X           Y           Z
 ---------------------------------------------------------------------
      1          8           0        0.045346   -2.441394    0.000000
      2          1           0       -0.755128   -3.011259    0.000000
      3          1           0        0.844012   -3.013791    0.000000
      4          8           0        0.045346    2.485940    0.000000
      5          1           0        0.080540    3.467912    0.000000
      6          1           0       -0.894964    2.200770    0.000000
 ---------------------------------------------------------------------

 SCF Done:  E(RHF) =  -152.106838813     A.U. after   10 cycles
 E2 =    -0.5259799384D+00 EUMP2 =    -0.15263281875115D+03
 CCSD(T)
 CCSD(T)= -0.15266004697D+03

 The electronic state is 1-A'.
 Alpha  occ. eigenvalues --  -20.55298 -20.54862  -1.32593  -1.32153  -0.70001
 Alpha  occ. eigenvalues --   -0.69550  -0.56012  -0.55573  -0.49700  -0.49263
 Alpha virt. eigenvalues --    0.14037   0.15002   0.20311   0.20932   0.54462
 Alpha virt. eigenvalues --    0.55011   0.57434   0.57843   0.67177   0.69994
 Alpha virt. eigenvalues --    0.79179   0.79607   0.80534   0.81092   0.82814

 Mulliken charges:
               1
     1  O   -0.505441
     2  H    0.250679
     3  H    0.254832
     4  O   -0.505001
     5  H    0.249223
     6  H    0.255708
 Sum of Mulliken charges =  -0.00000

 Dipole moment (field-independent basis, Debye):
    X=             -1.5493    Y=             -0.7884    Z=              0.0000  Tot=              1.7384
 Quadrupole moment (field-independent basis, Debye-Ang):
   XX=             -9.0994   YY=              5.0438   ZZ=            -14.7113
   XY=             -3.0666   XZ=              0.0000   YZ=              0.0000

 Normal termination of Gaussian 16 at Fri Aug 26 19:45:00 2022.
