 Gaussian 16, Revision A.03,
 Gaussian 16:  ES64L-G16RevA.03 25-Dec-2016

 ------------------
 #p CCSD(T)/cc-pVTZ
 ------------------

 ------------
 H2O_H2O_4194
 ------------
 Symbolic Z-matrix:
 Charge =  0 Multiplicity = 1

                         Standard orientation:
 ---------------------------------------------------------------------
 Center     Atomic      Atomic             Coordinates (Angstroms)
 Number     Number       Type             X           Y           Z
 ---------------------------------------------------------------------
      1          8           0        0.054142   -2.982012    0.000000
      2          1           0       -0.746308   -3.551911    0.000000
      3          1           0        0.852832   -3.554375    0.000000
      4          8           0        0.054142    3.059354    0.000000
      5          1           0       -0.228217    4.000514    0.000000
      6          1           0       -0.744577    2.487031    0.000000
 ---------------------------------------------------------------------

 SCF Done:  E(RHF) =  -152.107420994     A.U. after   10 cycles
 E2 =    -0.5258839824D+00 EUMP2 =    -0.15263330497633D+03
 CCSD(T)
 CCSD(T)= -0.15266052439D+03

 The electronic state is 1-A'.
 Alpha  occ. eigenvalues --  -20.55597 -20.55104  -1.32896  -1.32402  -0.70302
 Alpha  occ. eigenvalues --   -0.69800  -0.56344  -0.55847  -0.50008  -0.49515
 Alpha virt. eigenvalues --    0.14049   0.14594   0.20151   0.20689   0.54256
 Alpha virt. eigenvalues --    0.54775   0.57178   0.57671   0.67782   0.68413
 Alpha virt. eigenvalues --    0.78873   0.79357   0.80302   0.80807   0.82269

 Mulliken charges:
               1
     1  O   -0.508980
     2  H    0.253143
     3  H    0.255841
     4  O   -0.508650
     5  H    0.251788
     6  H    0.256859
 Sum of Mulliken charges =  -0.00000

 Dipole moment (field-independent basis, Debye):
    X=             -1.8597    Y=             -1.3539    Z=              0.0000  Tot=              2.3003
 Quadrupole moment (field-independent basis, Debye-Ang):
   XX=             -9.6485   YY=              5.6889   ZZ=            -14.7121
   XY=             -5.2444   XZ=              0.0000   YZ=              0.0000

 Normal termination of Gaussian 16 at Sat Aug 27 05:55:08 2022.
