 Gaussian 16, Revision A.03,
 Gaussian 16:  ES64L-G16RevA.03 25-Dec-2016

 ------------------
 #p CCSD(T)/cc-pVTZ
 ------------------

 ------------
 H2O_H2O_1330
 ------------
 Symbolic Z-matrix:
 Charge =  0 Multiplicity = 1

                         Standard orientation:
 ---------------------------------------------------------------------
 Center     Atomic      Atomic             Coordinates (Angstroms)
 Number     Number       Type             X           Y           Z
 ---------------------------------------------------------------------
      1          8           0        0.018362   -1.505010    0.000000
      2          1           0       -0.781808   -2.075304    0.000000
      3          1           0        0.817334   -2.076980    0.000000
      4          8           0        0.018362    1.511034    0.000000
      5          1           0        0.592751    2.308268    0.000000
      6          1           0       -0.922062    1.795828    0.000000
 ---------------------------------------------------------------------

 SCF Done:  E(RHF) =  -152.101752741     A.U. after   11 cycles
 E2 =    -0.5273662896D+00 EUMP2 =    -0.15262911903023D+03
 CCSD(T)
 CCSD(T)= -0.15265640579D+03

 The electronic state is 1-A'.
 Alpha  occ. eigenvalues --  -20.53976 -20.53831  -1.31343  -1.31070  -0.68757
 Alpha  occ. eigenvalues --   -0.68520  -0.55639  -0.53093  -0.48533  -0.48041
 Alpha virt. eigenvalues --    0.14313   0.16699   0.20531   0.21920   0.51992
 Alpha virt. eigenvalues --    0.58314   0.58600   0.59472   0.66082   0.76567
 Alpha virt. eigenvalues --    0.77736   0.78411   0.79080   0.82652   0.86028

 Mulliken charges:
               1
     1  O   -0.474384
     2  H    0.234207
     3  H    0.240306
     4  O   -0.472348
     5  H    0.233173
     6  H    0.239047
 Sum of Mulliken charges =  -0.00000

 Dipole moment (field-independent basis, Debye):
    X=             -0.6007    Y=             -0.1137    Z=              0.0000  Tot=              0.6114
 Quadrupole moment (field-independent basis, Debye-Ang):
   XX=             -8.1033   YY=             -0.4690   ZZ=            -14.7109
   XY=             -0.4372   XZ=              0.0000   YZ=              0.0000

 Normal termination of Gaussian 16 at Sat Aug 27 03:58:05 2022.
