 Gaussian 16, Revision A.03,
 Gaussian 16:  ES64L-G16RevA.03 25-Dec-2016

 ------------------
 #p CCSD(T)/cc-pVTZ
 ------------------

 ------------
 H2O_H2O_3848
 ------------
 Symbolic Z-matrix:
 Charge =  0 Multiplicity = 1

                         Standard orientation:
 ---------------------------------------------------------------------
 Center     Atomic      Atomic             Coordinates (Angstroms)
 Number     Number       Type             X           Y           Z
 ---------------------------------------------------------------------
      1          8           0        0.057083   -2.780003    0.000000
      2          1           0       -0.743475   -3.349750    0.000000
      3          1           0        0.855664   -3.352519    0.000000
      4          8           0        0.057083    2.886561    0.000000
      5          1           0       -0.459085    3.722669    0.000000
      6          1           0       -0.566437    2.127134    0.000000
 ---------------------------------------------------------------------

 SCF Done:  E(RHF) =  -152.107752061     A.U. after   10 cycles
 E2 =    -0.5258675543D+00 EUMP2 =    -0.15263361961547D+03
 CCSD(T)
 CCSD(T)= -0.15266083077D+03

 The electronic state is 1-A'.
 Alpha  occ. eigenvalues --  -20.55783 -20.55004  -1.33082  -1.32304  -0.70488
 Alpha  occ. eigenvalues --   -0.69699  -0.56546  -0.55759  -0.50196  -0.49421
 Alpha virt. eigenvalues --    0.13792   0.14778   0.20005   0.20883   0.54061
 Alpha virt. eigenvalues --    0.54849   0.57017   0.57765   0.67361   0.68692
 Alpha virt. eigenvalues --    0.78687   0.79445   0.80098   0.80636   0.82477

 Mulliken charges:
               1
     1  O   -0.510892
     2  H    0.253840
     3  H    0.257094
     4  O   -0.510332
     5  H    0.251628
     6  H    0.258662
 Sum of Mulliken charges =  -0.00000

 Dipole moment (field-independent basis, Debye):
    X=             -1.9587    Y=             -1.8725    Z=              0.0000  Tot=              2.7097
 Quadrupole moment (field-independent basis, Debye-Ang):
   XX=             -9.8542   YY=              1.9621   ZZ=            -14.7130
   XY=             -5.6885   XZ=              0.0000   YZ=              0.0000

 Normal termination of Gaussian 16 at Sat Aug 27 03:45:59 2022.
