 Gaussian 16, Revision A.03,
 Gaussian 16:  ES64L-G16RevA.03 25-Dec-2016

 ------------------
 #p CCSD(T)/cc-pVTZ
 ------------------

 ------------
 H2O_H2O_2608
 ------------
 Symbolic Z-matrix:
 Charge =  0 Multiplicity = 1

                         Standard orientation:
 ---------------------------------------------------------------------
 Center     Atomic      Atomic             Coordinates (Angstroms)
 Number     Number       Type             X           Y           Z
 ---------------------------------------------------------------------
      1          8           0        0.028565   -2.178097    0.000000
      2          1           0       -0.771648   -2.748329    0.000000
      3          1           0        0.827493   -2.750128    0.000000
      4          8           0        0.028565    2.193336    0.000000
      5          1           0        0.436455    3.087278    0.000000
      6          1           0       -0.949343    2.289265    0.000000
 ---------------------------------------------------------------------

 SCF Done:  E(RHF) =  -152.105924104     A.U. after   10 cycles
 E2 =    -0.5261223240D+00 EUMP2 =    -0.15263204642791D+03
 CCSD(T)
 CCSD(T)= -0.15265928829D+03

 The electronic state is 1-A'.
 Alpha  occ. eigenvalues --  -20.54889 -20.54700  -1.32178  -1.31987  -0.69591
 Alpha  occ. eigenvalues --   -0.69392  -0.55568  -0.55336  -0.49280  -0.49089
 Alpha virt. eigenvalues --    0.14143   0.15324   0.20515   0.21020   0.54482
 Alpha virt. eigenvalues --    0.55414   0.57745   0.57984   0.65132   0.72639
 Alpha virt. eigenvalues --    0.79517   0.79857   0.80941   0.81212   0.82385

 Mulliken charges:
               1
     1  O   -0.499771
     2  H    0.248122
     3  H    0.251729
     4  O   -0.499410
     5  H    0.247313
     6  H    0.252018
 Sum of Mulliken charges =  -0.00000

 Dipole moment (field-independent basis, Debye):
    X=             -0.9706    Y=             -0.2724    Z=              0.0000  Tot=              1.0081
 Quadrupole moment (field-independent basis, Debye-Ang):
   XX=             -8.3323   YY=              4.7136   ZZ=            -14.7101
   XY=             -1.4014   XZ=              0.0000   YZ=              0.0000

 Normal termination of Gaussian 16 at Fri Aug 26 14:18:02 2022.
