 Gaussian 16, Revision A.03,
 Gaussian 16:  ES64L-G16RevA.03 25-Dec-2016

 ------------------
 #p CCSD(T)/cc-pVTZ
 ------------------

 -----------
 H2O_H2O_450
 -----------
 Symbolic Z-matrix:
 Charge =  0 Multiplicity = 1

                         Standard orientation:
 ---------------------------------------------------------------------
 Center     Atomic      Atomic             Coordinates (Angstroms)
 Number     Number       Type             X           Y           Z
 ---------------------------------------------------------------------
      1          8           0       -0.000000    0.000000    1.042925
      2          1           0       -0.000000   -0.799571    1.614057
      3          1           0        0.000000    0.799571    1.614057
      4          8           0        0.000000   -0.000000   -1.042925
      5          1           0        0.000000    0.799571   -1.614057
      6          1           0        0.000000   -0.799571   -1.614057
 ---------------------------------------------------------------------

 SCF Done:  E(RHF) =  -152.061962931     A.U. after   11 cycles
 E2 =    -0.5336670931D+00 EUMP2 =    -0.15259563002461D+03
 CCSD(T)
 CCSD(T)= -0.15262261041D+03

 The electronic state is 1-AG.
 Alpha  occ. eigenvalues --  -20.52004 -20.52003  -1.31553  -1.28819  -0.68325
 Alpha  occ. eigenvalues --   -0.66646  -0.60172  -0.48829  -0.45300  -0.44938
 Alpha virt. eigenvalues --    0.14647   0.18300   0.20523   0.22722   0.50141
 Alpha virt. eigenvalues --    0.59131   0.59244   0.65885   0.70637   0.77653
 Alpha virt. eigenvalues --    0.78897   0.82334   0.84477   0.86699   0.87116

 Mulliken charges:
               1
     1  O   -0.436556
     2  H    0.218278
     3  H    0.218278
     4  O   -0.436556
     5  H    0.218278
     6  H    0.218278
 Sum of Mulliken charges =  -0.00000

 Dipole moment (field-independent basis, Debye):
    X=              0.0000    Y=             -0.0000    Z=             -0.0000  Tot=              0.0000
 Quadrupole moment (field-independent basis, Debye-Ang):
   XX=            -14.7492   YY=             -8.1174   ZZ=             -5.2043
   XY=             -0.0000   XZ=             -0.0000   YZ=             -0.0000

 4DQ=-152.603213\MP4SDQ=-152.6066789\CCSD=-152.6059336\CCSD(T)=-152.622
 Normal termination of Gaussian 16 at Fri Aug 26 16:34:11 2022.
