 Gaussian 16, Revision A.03,
 Gaussian 16:  ES64L-G16RevA.03 25-Dec-2016

 ------------------
 #p CCSD(T)/cc-pVTZ
 ------------------

 -----------
 H2O_H2O_282
 -----------
 Symbolic Z-matrix:
 Charge =  0 Multiplicity = 1

                         Standard orientation:
 ---------------------------------------------------------------------
 Center     Atomic      Atomic             Coordinates (Angstroms)
 Number     Number       Type             X           Y           Z
 ---------------------------------------------------------------------
      1          8           0        0.025274   -0.943517    0.000000
      2          1           0       -0.775603   -1.512816    0.000000
      3          1           0        0.823535   -1.516479    0.000000
      4          8           0        0.025274    0.955182    0.000000
      5          1           0        0.491764    1.819989    0.000000
      6          1           0       -0.944079    1.115993    0.000000
 ---------------------------------------------------------------------

 SCF Done:  E(RHF) =  -152.031639756     A.U. after   11 cycles
 E2 =    -0.5379173315D+00 EUMP2 =    -0.15256955708725D+03
 CCSD(T)
 CCSD(T)= -0.15259604652D+03

 The electronic state is 1-A'.
 Alpha  occ. eigenvalues --  -20.51948 -20.51588  -1.32956  -1.28084  -0.69413
 Alpha  occ. eigenvalues --   -0.66869  -0.61363  -0.49971  -0.44520  -0.42081
 Alpha virt. eigenvalues --    0.14522   0.18503   0.20256   0.23195   0.51989
 Alpha virt. eigenvalues --    0.58085   0.58860   0.65449   0.69965   0.78058
 Alpha virt. eigenvalues --    0.79115   0.82957   0.83934   0.86191   0.88028

 Mulliken charges:
               1
     1  O   -0.423193
     2  H    0.202311
     3  H    0.218938
     4  O   -0.397482
     5  H    0.171613
     6  H    0.227813
 Sum of Mulliken charges =  -0.00000

 Dipole moment (field-independent basis, Debye):
    X=             -0.7229    Y=             -0.2552    Z=              0.0000  Tot=              0.7667
 Quadrupole moment (field-independent basis, Debye-Ang):
   XX=             -8.5492   YY=             -6.4796   ZZ=            -14.7399
   XY=             -0.2820   XZ=              0.0000   YZ=              0.0000

 Normal termination of Gaussian 16 at Fri Aug 26 14:50:14 2022.
