 Gaussian 16, Revision A.03,
 Gaussian 16:  ES64L-G16RevA.03 25-Dec-2016

 ------------------
 #p CCSD(T)/cc-pVTZ
 ------------------

 ------------
 H2O_H2O_1603
 ------------
 Symbolic Z-matrix:
 Charge =  0 Multiplicity = 1

                         Standard orientation:
 ---------------------------------------------------------------------
 Center     Atomic      Atomic             Coordinates (Angstroms)
 Number     Number       Type             X           Y           Z
 ---------------------------------------------------------------------
      1          8           0        0.011143   -1.653352    0.000000
      2          1           0       -0.788759   -2.224020    0.000000
      3          1           0        0.810383   -2.224947    0.000000
      4          8           0        0.011143    1.655534    0.000000
      5          1           0        0.684343    2.371291    0.000000
      6          1           0       -0.884253    2.060222    0.000000
 ---------------------------------------------------------------------

 SCF Done:  E(RHF) =  -152.103307782     A.U. after   10 cycles
 E2 =    -0.5268877831D+00 EUMP2 =    -0.15263019556526D+03
 CCSD(T)
 CCSD(T)= -0.15265746336D+03

 The electronic state is 1-A'.
 Alpha  occ. eigenvalues --  -20.54168 -20.54122  -1.31483  -1.31372  -0.68904
 Alpha  occ. eigenvalues --   -0.68808  -0.55387  -0.53894  -0.48640  -0.48392
 Alpha virt. eigenvalues --    0.14278   0.16334   0.20577   0.21601   0.52716
 Alpha virt. eigenvalues --    0.58109   0.58207   0.58562   0.62424   0.76173
 Alpha virt. eigenvalues --    0.78580   0.78710   0.79849   0.81787   0.85107

 Mulliken charges:
               1
     1  O   -0.480434
     2  H    0.238827
     3  H    0.241699
     4  O   -0.480279
     5  H    0.238625
     6  H    0.241563
 Sum of Mulliken charges =  -0.00000

 Dipole moment (field-independent basis, Debye):
    X=             -0.3698    Y=             -0.0408    Z=              0.0000  Tot=              0.3720
 Quadrupole moment (field-independent basis, Debye-Ang):
   XX=             -7.9472   YY=              0.8877   ZZ=            -14.7090
   XY=             -0.3048   XZ=              0.0000   YZ=              0.0000

 Normal termination of Gaussian 16 at Sat Aug 27 05:43:10 2022.
