 Gaussian 16, Revision A.03,
 Gaussian 16:  ES64L-G16RevA.03 25-Dec-2016

 ------------------
 #p CCSD(T)/cc-pVTZ
 ------------------

 ------------
 H2O_H2O_2096
 ------------
 Symbolic Z-matrix:
 Charge =  0 Multiplicity = 1

                         Standard orientation:
 ---------------------------------------------------------------------
 Center     Atomic      Atomic             Coordinates (Angstroms)
 Number     Number       Type             X           Y           Z
 ---------------------------------------------------------------------
      1          8           0        0.056132   -1.857379    0.000000
      2          1           0       -0.744883   -2.426484    0.000000
      3          1           0        0.854253   -2.430535    0.000000
      4          8           0        0.056132    1.949037    0.000000
      5          1           0       -0.345766    2.845688    0.000000
      6          1           0       -0.661717    1.278068    0.000000
 ---------------------------------------------------------------------

 SCF Done:  E(RHF) =  -152.108295204     A.U. after   10 cycles
 E2 =    -0.5262879675D+00 EUMP2 =    -0.15263458317176D+03
 CCSD(T)
 CCSD(T)= -0.15266174287D+03

 The electronic state is 1-A'.
 Alpha  occ. eigenvalues --  -20.55923 -20.54208  -1.33195  -1.31501  -0.70603
 Alpha  occ. eigenvalues --   -0.68868  -0.56647  -0.54957  -0.50313  -0.48627
 Alpha virt. eigenvalues --    0.13104   0.16210   0.19872   0.23007   0.53907
 Alpha virt. eigenvalues --    0.54783   0.56943   0.58550   0.65811   0.74511
 Alpha virt. eigenvalues --    0.78305   0.79079   0.80096   0.80402   0.84165

 Mulliken charges:
               1
     1  O   -0.502344
     2  H    0.248537
     3  H    0.257627
     4  O   -0.510581
     5  H    0.244715
     6  H    0.262046
 Sum of Mulliken charges =  -0.00000

 Dipole moment (field-independent basis, Debye):
    X=             -1.8892    Y=             -1.6972    Z=              0.0000  Tot=              2.5395
 Quadrupole moment (field-independent basis, Debye-Ang):
   XX=             -9.7831   YY=             -1.0935   ZZ=            -14.7172
   XY=             -3.5692   XZ=              0.0000   YZ=              0.0000

 Normal termination of Gaussian 16 at Sat Aug 27 08:33:48 2022.
