 Gaussian 16, Revision A.03,
 Gaussian 16:  ES64L-G16RevA.03 25-Dec-2016

 ------------------
 #p CCSD(T)/cc-pVTZ
 ------------------

 ------------
 H2O_H2O_2025
 ------------
 Symbolic Z-matrix:
 Charge =  0 Multiplicity = 1

                         Standard orientation:
 ---------------------------------------------------------------------
 Center     Atomic      Atomic             Coordinates (Angstroms)
 Number     Number       Type             X           Y           Z
 ---------------------------------------------------------------------
      1          8           0        0.000000   -0.000000    1.880568
      2          1           0        0.000000    0.799571    2.451700
      3          1           0       -0.000000   -0.799571    2.451700
      4          8           0        0.000000   -0.000000   -1.880568
      5          1           0       -0.000000   -0.799571   -2.451700
      6          1           0        0.000000    0.799571   -2.451700
 ---------------------------------------------------------------------

 SCF Done:  E(RHF) =  -152.104652044     A.U. after   10 cycles
 E2 =    -0.5264432173D+00 EUMP2 =    -0.15263109526122D+03
 CCSD(T)
 CCSD(T)= -0.15265834656D+03

 The electronic state is 1-AG.
 Alpha  occ. eigenvalues --  -20.54437 -20.54437  -1.31732  -1.31703  -0.69152
 Alpha  occ. eigenvalues --   -0.69125  -0.55311  -0.54695  -0.48855  -0.48769
 Alpha virt. eigenvalues --    0.14215   0.15838   0.20630   0.21245   0.53996
 Alpha virt. eigenvalues --    0.56853   0.57939   0.58277   0.61151   0.75427
 Alpha virt. eigenvalues --    0.79362   0.80360   0.80693   0.80752   0.82710

 Mulliken charges:
               1
     1  O   -0.490203
     2  H    0.245102
     3  H    0.245102
     4  O   -0.490203
     5  H    0.245102
     6  H    0.245102
 Sum of Mulliken charges =   0.00000

 Dipole moment (field-independent basis, Debye):
    X=             -0.0000    Y=              0.0000    Z=              0.0000  Tot=              0.0000
 Quadrupole moment (field-independent basis, Debye-Ang):
   XX=            -14.7091   YY=             -7.8453   ZZ=              2.8639
   XY=              0.0000   XZ=              0.0000   YZ=             -0.0000

 \MP4DQ=-152.6401461\MP4SDQ=-152.6432395\CCSD=-152.6426363\CCSD(T)=-152
 Normal termination of Gaussian 16 at Sat Aug 27 08:10:11 2022.
