 Gaussian 16, Revision A.03,
 Gaussian 16:  ES64L-G16RevA.03 25-Dec-2016

 ------------------
 #p CCSD(T)/cc-pVTZ
 ------------------

 ------------
 H2O_H2O_4887
 ------------
 Symbolic Z-matrix:
 Charge =  0 Multiplicity = 1

                         Standard orientation:
 ---------------------------------------------------------------------
 Center     Atomic      Atomic             Coordinates (Angstroms)
 Number     Number       Type             X           Y           Z
 ---------------------------------------------------------------------
      1          8           0        0.040402   -3.378177    0.000000
      2          1           0       -0.759753   -3.948489    0.000000
      3          1           0        0.839388   -3.950127    0.000000
      4          8           0        0.040402    3.411550    0.000000
      5          1           0        0.202926    4.380617    0.000000
      6          1           0       -0.928997    3.251012    0.000000
 ---------------------------------------------------------------------

 SCF Done:  E(RHF) =  -152.107153632     A.U. after   10 cycles
 E2 =    -0.5258970375D+00 EUMP2 =    -0.15263305066982D+03
 CCSD(T)
 CCSD(T)= -0.15266027649D+03

 The electronic state is 1-A'.
 Alpha  occ. eigenvalues --  -20.55405 -20.55239  -1.32702  -1.32535  -0.70109
 Alpha  occ. eigenvalues --   -0.69939  -0.56138  -0.55971  -0.49812  -0.49645
 Alpha virt. eigenvalues --    0.14251   0.14417   0.20312   0.20486   0.54456
 Alpha virt. eigenvalues --    0.54634   0.57352   0.57519   0.68071   0.68240
 Alpha virt. eigenvalues --    0.79067   0.79232   0.80504   0.80683   0.82429

 Mulliken charges:
               1
     1  O   -0.507371
     2  H    0.252944
     3  H    0.254427
     4  O   -0.507260
     5  H    0.252446
     6  H    0.254814
 Sum of Mulliken charges =  -0.00000

 Dipole moment (field-independent basis, Debye):
    X=             -1.3897    Y=             -0.5815    Z=              0.0000  Tot=              1.5065
 Quadrupole moment (field-independent basis, Debye-Ang):
   XX=             -8.8296   YY=             12.1382   ZZ=            -14.7113
   XY=             -3.8697   XZ=              0.0000   YZ=              0.0000

 Normal termination of Gaussian 16 at Sat Aug 27 09:53:55 2022.
