 Gaussian 16, Revision A.03,
 Gaussian 16:  ES64L-G16RevA.03 25-Dec-2016

 ------------------
 #p CCSD(T)/cc-pVTZ
 ------------------

 ------------
 H2O_H2O_4910
 ------------
 Symbolic Z-matrix:
 Charge =  0 Multiplicity = 1

                         Standard orientation:
 ---------------------------------------------------------------------
 Center     Atomic      Atomic             Coordinates (Angstroms)
 Number     Number       Type             X           Y           Z
 ---------------------------------------------------------------------
      1          8           0        0.034779   -3.396811    0.000000
      2          1           0       -0.765294   -3.967240    0.000000
      3          1           0        0.833848   -3.968645    0.000000
      4          8           0        0.034779    3.420354    0.000000
      5          1           0        0.322264    4.359960    0.000000
      6          1           0       -0.947277    3.387578    0.000000
 ---------------------------------------------------------------------

 SCF Done:  E(RHF) =  -152.107096086     A.U. after   10 cycles
 E2 =    -0.5259017484D+00 EUMP2 =    -0.15263299783412D+03
 CCSD(T)
 CCSD(T)= -0.15266022490D+03

 The electronic state is 1-A'.
 Alpha  occ. eigenvalues --  -20.55362 -20.55245  -1.32659  -1.32542  -0.70065
 Alpha  occ. eigenvalues --   -0.69946  -0.56092  -0.55975  -0.49768  -0.49652
 Alpha virt. eigenvalues --    0.14290   0.14406   0.20348   0.20469   0.54501
 Alpha virt. eigenvalues --    0.54625   0.57391   0.57508   0.68122   0.68240
 Alpha virt. eigenvalues --    0.79111   0.79227   0.80549   0.80675   0.82474

 Mulliken charges:
               1
     1  O   -0.507029
     2  H    0.252882
     3  H    0.254147
     4  O   -0.506946
     5  H    0.252496
     6  H    0.254450
 Sum of Mulliken charges =  -0.00000

 Dipole moment (field-independent basis, Debye):
    X=             -1.1963    Y=             -0.4101    Z=              0.0000  Tot=              1.2646
 Quadrupole moment (field-independent basis, Debye-Ang):
   XX=             -8.5630   YY=             13.1522   ZZ=            -14.7112
   XY=             -3.2394   XZ=              0.0000   YZ=              0.0000

 Normal termination of Gaussian 16 at Sat Aug 27 10:04:43 2022.
