 Gaussian 16, Revision A.03,
 Gaussian 16:  ES64L-G16RevA.03 25-Dec-2016

 ------------------
 #p CCSD(T)/cc-pVTZ
 ------------------

 -----------
 H2O_H2O_534
 -----------
 Symbolic Z-matrix:
 Charge =  0 Multiplicity = 1

                         Standard orientation:
 ---------------------------------------------------------------------
 Center     Atomic      Atomic             Coordinates (Angstroms)
 Number     Number       Type             X           Y           Z
 ---------------------------------------------------------------------
      1          8           0        0.031755   -1.072443    0.000000
      2          1           0       -0.769256   -1.641554    0.000000
      3          1           0        0.829881   -1.645591    0.000000
      4          8           0        0.031755    1.091533    0.000000
      5          1           0        0.381589    2.009750    0.000000
      6          1           0       -0.950288    1.124673    0.000000
 ---------------------------------------------------------------------

 SCF Done:  E(RHF) =  -152.075248049     A.U. after   11 cycles
 E2 =    -0.5323116554D+00 EUMP2 =    -0.15260755970442D+03
 CCSD(T)
 CCSD(T)= -0.15263462921D+03

 The electronic state is 1-A'.
 Alpha  occ. eigenvalues --  -20.52959 -20.52329  -1.31807  -1.29274  -0.68893
 Alpha  occ. eigenvalues --   -0.67335  -0.58536  -0.49054  -0.47415  -0.45912
 Alpha virt. eigenvalues --    0.14398   0.17868   0.20361   0.23100   0.52377
 Alpha virt. eigenvalues --    0.58188   0.58528   0.63555   0.70577   0.76646
 Alpha virt. eigenvalues --    0.78142   0.81573   0.83827   0.86152   0.87648

 Mulliken charges:
               1
     1  O   -0.453296
     2  H    0.217062
     3  H    0.234119
     4  O   -0.427670
     5  H    0.193471
     6  H    0.236314
 Sum of Mulliken charges =  -0.00000

 Dipole moment (field-independent basis, Debye):
    X=             -0.9481    Y=             -0.3833    Z=              0.0000  Tot=              1.0226
 Quadrupole moment (field-independent basis, Debye-Ang):
   XX=             -8.6534   YY=             -4.7492   ZZ=            -14.7341
   XY=             -0.4777   XZ=              0.0000   YZ=              0.0000

 Normal termination of Gaussian 16 at Fri Aug 26 17:24:56 2022.
