 Gaussian 16, Revision A.03,
 Gaussian 16:  ES64L-G16RevA.03 25-Dec-2016

 ------------------
 #p CCSD(T)/cc-pVTZ
 ------------------

 ------------
 H2O_H2O_3710
 ------------
 Symbolic Z-matrix:
 Charge =  0 Multiplicity = 1

                         Standard orientation:
 ---------------------------------------------------------------------
 Center     Atomic      Atomic             Coordinates (Angstroms)
 Number     Number       Type             X           Y           Z
 ---------------------------------------------------------------------
      1          8           0        0.034781   -2.758614    0.000000
      2          1           0       -0.765407   -3.328882    0.000000
      3          1           0        0.833735   -3.330610    0.000000
      4          8           0        0.034781    2.782144    0.000000
      5          1           0        0.322456    3.721692    0.000000
      6          1           0       -0.947281    2.749567    0.000000
 ---------------------------------------------------------------------

 SCF Done:  E(RHF) =  -152.106763973     A.U. after   10 cycles
 E2 =    -0.5259507849D+00 EUMP2 =    -0.15263271475828D+03
 CCSD(T)
 CCSD(T)= -0.15265994767D+03

 The electronic state is 1-A'.
 Alpha  occ. eigenvalues --  -20.55215 -20.55038  -1.32511  -1.32331  -0.69919
 Alpha  occ. eigenvalues --   -0.69735  -0.55928  -0.55749  -0.49618  -0.49439
 Alpha virt. eigenvalues --    0.14345   0.14643   0.20433   0.20653   0.54639
 Alpha virt. eigenvalues --    0.54852   0.57509   0.57693   0.68072   0.68742
 Alpha virt. eigenvalues --    0.79261   0.79436   0.80702   0.80899   0.82650

 Mulliken charges:
               1
     1  O   -0.505095
     2  H    0.251403
     3  H    0.253694
     4  O   -0.504882
     5  H    0.250753
     6  H    0.254126
 Sum of Mulliken charges =  -0.00000

 Dipole moment (field-independent basis, Debye):
    X=             -1.1921    Y=             -0.4129    Z=              0.0000  Tot=              1.2616
 Quadrupole moment (field-independent basis, Debye-Ang):
   XX=             -8.5668   YY=              8.5678   ZZ=            -14.7108
   XY=             -2.4832   XZ=              0.0000   YZ=              0.0000

 Normal termination of Gaussian 16 at Sat Aug 27 02:40:33 2022.
