 Gaussian 16, Revision A.03,
 Gaussian 16:  ES64L-G16RevA.03 25-Dec-2016

 ------------------
 #p CCSD(T)/cc-pVTZ
 ------------------

 ------------
 H2O_H2O_1352
 ------------
 Symbolic Z-matrix:
 Charge =  0 Multiplicity = 1

                         Standard orientation:
 ---------------------------------------------------------------------
 Center     Atomic      Atomic             Coordinates (Angstroms)
 Number     Number       Type             X           Y           Z
 ---------------------------------------------------------------------
      1          8           0        0.007455   -1.521051    0.000000
      2          1           0       -0.792357   -2.091846    0.000000
      3          1           0        0.806785   -2.092520    0.000000
      4          8           0        0.007455    1.522022    0.000000
      5          1           0        0.725921    2.192330    0.000000
      6          1           0       -0.859629    1.984268    0.000000
 ---------------------------------------------------------------------

 SCF Done:  E(RHF) =  -152.101610163     A.U. after   10 cycles
 E2 =    -0.5273148834D+00 EUMP2 =    -0.15262892504615D+03
 CCSD(T)
 CCSD(T)= -0.15265621950D+03

 The electronic state is 1-A'.
 Alpha  occ. eigenvalues --  -20.53888 -20.53865  -1.31284  -1.31078  -0.68695
 Alpha  occ. eigenvalues --   -0.68537  -0.55585  -0.53076  -0.48479  -0.48040
 Alpha virt. eigenvalues --    0.14378   0.16668   0.20567   0.21821   0.51801
 Alpha virt. eigenvalues --    0.58295   0.58641   0.59770   0.65456   0.76213
 Alpha virt. eigenvalues --    0.77873   0.78029   0.79304   0.82599   0.86101

 Mulliken charges:
               1
     1  O   -0.473332
     2  H    0.235447
     3  H    0.237904
     4  O   -0.472992
     5  H    0.235428
     6  H    0.237544
 Sum of Mulliken charges =  -0.00000

 Dipole moment (field-independent basis, Debye):
    X=             -0.2444    Y=             -0.0183    Z=              0.0000  Tot=              0.2451
 Quadrupole moment (field-independent basis, Debye-Ang):
   XX=             -7.9289   YY=             -0.2609   ZZ=            -14.7101
   XY=             -0.1692   XZ=              0.0000   YZ=              0.0000

 215\MP4DQ=-152.6378453\MP4SDQ=-152.6409919\CCSD=-152.6403704\CCSD(T)=-
 Normal termination of Gaussian 16 at Sat Aug 27 04:10:17 2022.
