 Gaussian 16, Revision A.03,
 Gaussian 16:  ES64L-G16RevA.03 25-Dec-2016

 ------------------
 #p CCSD(T)/cc-pVTZ
 ------------------

 ------------
 H2O_H2O_3239
 ------------
 Symbolic Z-matrix:
 Charge =  0 Multiplicity = 1

                         Standard orientation:
 ---------------------------------------------------------------------
 Center     Atomic      Atomic             Coordinates (Angstroms)
 Number     Number       Type             X           Y           Z
 ---------------------------------------------------------------------
      1          8           0        0.045346   -2.494576    0.000000
      2          1           0       -0.755110   -3.064468    0.000000
      3          1           0        0.844030   -3.066947    0.000000
      4          8           0        0.045346    2.539126    0.000000
      5          1           0        0.080506    3.521097    0.000000
      6          1           0       -0.894956    2.253923    0.000000
 ---------------------------------------------------------------------

 SCF Done:  E(RHF) =  -152.106873061     A.U. after   10 cycles
 E2 =    -0.5259683912D+00 EUMP2 =    -0.15263284145219D+03
 CCSD(T)
 CCSD(T)= -0.15266006974D+03

 The electronic state is 1-A'.
 Alpha  occ. eigenvalues --  -20.55310 -20.54894  -1.32606  -1.32186  -0.70014
 Alpha  occ. eigenvalues --   -0.69583  -0.56027  -0.55608  -0.49713  -0.49296
 Alpha virt. eigenvalues --    0.14078   0.14934   0.20314   0.20886   0.54479
 Alpha virt. eigenvalues --    0.54988   0.57423   0.57821   0.67363   0.69662
 Alpha virt. eigenvalues --    0.79166   0.79575   0.80548   0.81030   0.82754

 Mulliken charges:
               1
     1  O   -0.505692
     2  H    0.250914
     3  H    0.254827
     4  O   -0.505259
     5  H    0.249530
     6  H    0.255679
 Sum of Mulliken charges =  -0.00000

 Dipole moment (field-independent basis, Debye):
    X=             -1.5504    Y=             -0.7871    Z=              0.0000  Tot=              1.7388
 Quadrupole moment (field-independent basis, Debye-Ang):
   XX=             -9.0990   YY=              5.3895   ZZ=            -14.7113
   XY=             -3.1481   XZ=              0.0000   YZ=              0.0000

 Normal termination of Gaussian 16 at Fri Aug 26 20:37:57 2022.
