 Gaussian 16, Revision A.03,
 Gaussian 16:  ES64L-G16RevA.03 25-Dec-2016

 ------------------
 #p CCSD(T)/cc-pVTZ
 ------------------

 ------------
 H2O_H2O_4593
 ------------
 Symbolic Z-matrix:
 Charge =  0 Multiplicity = 1

                         Standard orientation:
 ---------------------------------------------------------------------
 Center     Atomic      Atomic             Coordinates (Angstroms)
 Number     Number       Type             X           Y           Z
 ---------------------------------------------------------------------
      1          8           0        0.052815   -3.198536    0.000000
      2          1           0       -0.747557   -3.768544    0.000000
      3          1           0        0.851583   -3.770791    0.000000
      4          8           0        0.052815    3.268901    0.000000
      5          1           0       -0.167514    4.226482    0.000000
      6          1           0       -0.781555    2.749928    0.000000
 ---------------------------------------------------------------------

 SCF Done:  E(RHF) =  -152.107376511     A.U. after   10 cycles
 E2 =    -0.5258809746D+00 EUMP2 =    -0.15263325748539D+03
 CCSD(T)
 CCSD(T)= -0.15266047831D+03

 The electronic state is 1-A'.
 Alpha  occ. eigenvalues --  -20.55567 -20.55179  -1.32866  -1.32477  -0.70272
 Alpha  occ. eigenvalues --   -0.69877  -0.56312  -0.55921  -0.49977  -0.49589
 Alpha virt. eigenvalues --    0.14101   0.14498   0.20179   0.20592   0.54289
 Alpha virt. eigenvalues --    0.54697   0.57205   0.57594   0.67871   0.68287
 Alpha virt. eigenvalues --    0.78902   0.79285   0.80334   0.80747   0.82261

 Mulliken charges:
               1
     1  O   -0.508702
     2  H    0.253265
     3  H    0.255438
     4  O   -0.508470
     5  H    0.252243
     6  H    0.256227
 Sum of Mulliken charges =   0.00000

 Dipole moment (field-independent basis, Debye):
    X=             -1.8159    Y=             -1.2284    Z=              0.0000  Tot=              2.1924
 Quadrupole moment (field-independent basis, Debye-Ang):
   XX=             -9.5595   YY=              7.5267   ZZ=            -14.7119
   XY=             -5.3841   XZ=              0.0000   YZ=              0.0000

 Normal termination of Gaussian 16 at Sat Aug 27 08:13:54 2022.
