 Gaussian 16, Revision A.03,
 Gaussian 16:  ES64L-G16RevA.03 25-Dec-2016

 ------------------
 #p CCSD(T)/cc-pVTZ
 ------------------

 ------------
 H2O_H2O_1602
 ------------
 Symbolic Z-matrix:
 Charge =  0 Multiplicity = 1

                         Standard orientation:
 ---------------------------------------------------------------------
 Center     Atomic      Atomic             Coordinates (Angstroms)
 Number     Number       Type             X           Y           Z
 ---------------------------------------------------------------------
      1          8           0        0.007455   -1.654009    0.000000
      2          1           0       -0.792337   -2.224831    0.000000
      3          1           0        0.806804   -2.225451    0.000000
      4          8           0        0.007455    1.654981    0.000000
      5          1           0        0.725898    2.325313    0.000000
      6          1           0       -0.859645    2.117198    0.000000
 ---------------------------------------------------------------------

 SCF Done:  E(RHF) =  -152.103244134     A.U. after   10 cycles
 E2 =    -0.5268889491D+00 EUMP2 =    -0.15263013308282D+03
 CCSD(T)
 CCSD(T)= -0.15265740275D+03

 The electronic state is 1-A'.
 Alpha  occ. eigenvalues --  -20.54144 -20.54124  -1.31468  -1.31366  -0.68889
 Alpha  occ. eigenvalues --   -0.68804  -0.55380  -0.53874  -0.48627  -0.48383
 Alpha virt. eigenvalues --    0.14295   0.16331   0.20586   0.21587   0.52715
 Alpha virt. eigenvalues --    0.58112   0.58360   0.58562   0.62255   0.76078
 Alpha virt. eigenvalues --    0.78592   0.78722   0.79840   0.81794   0.85139

 Mulliken charges:
               1
     1  O   -0.480177
     2  H    0.239149
     3  H    0.241069
     4  O   -0.480106
     5  H    0.239066
     6  H    0.240999
 Sum of Mulliken charges =  -0.00000

 Dipole moment (field-independent basis, Debye):
    X=             -0.2474    Y=             -0.0182    Z=              0.0000  Tot=              0.2481
 Quadrupole moment (field-independent basis, Debye-Ang):
   XX=             -7.9052   YY=              0.9150   ZZ=            -14.7089
   XY=             -0.2012   XZ=              0.0000   YZ=              0.0000

 Normal termination of Gaussian 16 at Sat Aug 27 05:42:50 2022.
