 Gaussian 16, Revision A.03,
 Gaussian 16:  ES64L-G16RevA.03 25-Dec-2016

 ------------------
 #p CCSD(T)/cc-pVTZ
 ------------------

 ------------
 H2O_H2O_3546
 ------------
 Symbolic Z-matrix:
 Charge =  0 Multiplicity = 1

                         Standard orientation:
 ---------------------------------------------------------------------
 Center     Atomic      Atomic             Coordinates (Angstroms)
 Number     Number       Type             X           Y           Z
 ---------------------------------------------------------------------
      1          8           0        0.056099   -2.628499    0.000000
      2          1           0       -0.744501   -3.198189    0.000000
      3          1           0        0.854639   -3.201072    0.000000
      4          8           0        0.056099    2.720239    0.000000
      5          1           0       -0.346455    3.616597    0.000000
      6          1           0       -0.661260    2.048746    0.000000
 ---------------------------------------------------------------------

 SCF Done:  E(RHF) =  -152.107622931     A.U. after   10 cycles
 E2 =    -0.5258946143D+00 EUMP2 =    -0.15263351754555D+03
 CCSD(T)
 CCSD(T)= -0.15266072988D+03

 The electronic state is 1-A'.
 Alpha  occ. eigenvalues --  -20.55700 -20.54936  -1.32998  -1.32234  -0.70404
 Alpha  occ. eigenvalues --   -0.69627  -0.56455  -0.55684  -0.50111  -0.49350
 Alpha virt. eigenvalues --    0.13774   0.14897   0.20057   0.20965   0.54129
 Alpha virt. eigenvalues --    0.54898   0.57093   0.57802   0.67265   0.69050
 Alpha virt. eigenvalues --    0.78773   0.79515   0.80148   0.80596   0.82671

 Mulliken charges:
               1
     1  O   -0.510027
     2  H    0.253106
     3  H    0.257011
     4  O   -0.509509
     5  H    0.250834
     6  H    0.258585
 Sum of Mulliken charges =  -0.00000

 Dipole moment (field-independent basis, Debye):
    X=             -1.9222    Y=             -1.6178    Z=              0.0000  Tot=              2.5124
 Quadrupole moment (field-independent basis, Debye-Ang):
   XX=             -9.7830   YY=              2.6211   ZZ=            -14.7129
   XY=             -5.0261   XZ=              0.0000   YZ=              0.0000

 Normal termination of Gaussian 16 at Sat Aug 27 01:22:49 2022.
