 Gaussian 16, Revision A.03,
 Gaussian 16:  ES64L-G16RevA.03 25-Dec-2016

 ------------------
 #p CCSD(T)/cc-pVTZ
 ------------------

 -----------
 H2O_H2O_109
 -----------
 Symbolic Z-matrix:
 Charge =  0 Multiplicity = 1

                         Standard orientation:
 ---------------------------------------------------------------------
 Center     Atomic      Atomic             Coordinates (Angstroms)
 Number     Number       Type             X           Y           Z
 ---------------------------------------------------------------------
      1          8           0        0.031761   -0.846434    0.000000
      2          1           0       -0.769629   -1.415012    0.000000
      3          1           0        0.829505   -1.420115    0.000000
      4          8           0        0.031761    0.865482    0.000000
      5          1           0        0.382207    1.783466    0.000000
      6          1           0       -0.950259    0.899277    0.000000
 ---------------------------------------------------------------------

 SCF Done:  E(RHF) =  -151.971519690     A.U. after   12 cycles
 E2 =    -0.5454020445D+00 EUMP2 =    -0.15251692173412D+03
 CCSD(T)
 CCSD(T)= -0.15254236157D+03

 The electronic state is 1-A'.
 Alpha  occ. eigenvalues --  -20.51973 -20.51387  -1.35681  -1.27141  -0.71580
 Alpha  occ. eigenvalues --   -0.68340  -0.61865  -0.51996  -0.43596  -0.37530
 Alpha virt. eigenvalues --    0.14289   0.19024   0.19897   0.23481   0.53265
 Alpha virt. eigenvalues --    0.56368   0.58777   0.65500   0.71384   0.78261
 Alpha virt. eigenvalues --    0.79668   0.82832   0.83310   0.85118   0.88721

 Mulliken charges:
               1
     1  O   -0.377369
     2  H    0.177985
     3  H    0.199786
     4  O   -0.354002
     5  H    0.128614
     6  H    0.224986
 Sum of Mulliken charges =  -0.00000

 Dipole moment (field-independent basis, Debye):
    X=             -0.8781    Y=             -0.4593    Z=              0.0000  Tot=              0.9909
 Quadrupole moment (field-independent basis, Debye-Ang):
   XX=             -8.8398   YY=             -8.1253   ZZ=            -14.7140
   XY=             -0.4085   XZ=              0.0000   YZ=              0.0000

 Normal termination of Gaussian 16 at Fri Aug 26 12:50:44 2022.
