 Gaussian 16, Revision A.03,
 Gaussian 16:  ES64L-G16RevA.03 25-Dec-2016

 ------------------
 #p CCSD(T)/cc-pVTZ
 ------------------

 ------------
 H2O_H2O_1728
 ------------
 Symbolic Z-matrix:
 Charge =  0 Multiplicity = 1

                         Standard orientation:
 ---------------------------------------------------------------------
 Center     Atomic      Atomic             Coordinates (Angstroms)
 Number     Number       Type             X           Y           Z
 ---------------------------------------------------------------------
      1          8           0        0.011143   -1.719831    0.000000
      2          1           0       -0.788746   -2.290517    0.000000
      3          1           0        0.810395   -2.291409    0.000000
      4          8           0        0.011143    1.722013    0.000000
      5          1           0        0.684327    2.437785    0.000000
      6          1           0       -0.884262    2.126682    0.000000
 ---------------------------------------------------------------------

 SCF Done:  E(RHF) =  -152.103848488     A.U. after   10 cycles
 E2 =    -0.5267284679D+00 EUMP2 =    -0.15263057695558D+03
 CCSD(T)
 CCSD(T)= -0.15265783594D+03

 The electronic state is 1-A'.
 Alpha  occ. eigenvalues --  -20.54271 -20.54227  -1.31570  -1.31487  -0.68992
 Alpha  occ. eigenvalues --   -0.68916  -0.55343  -0.54191  -0.48713  -0.48526
 Alpha virt. eigenvalues --    0.14239   0.16182   0.20588   0.21493   0.53114
 Alpha virt. eigenvalues --    0.57658   0.58058   0.58457   0.61614   0.76036
 Alpha virt. eigenvalues --    0.78870   0.79178   0.80162   0.81415   0.84263

 Mulliken charges:
               1
     1  O   -0.483705
     2  H    0.240611
     3  H    0.243182
     4  O   -0.483662
     5  H    0.240383
     6  H    0.243193
 Sum of Mulliken charges =   0.00000

 Dipole moment (field-independent basis, Debye):
    X=             -0.3715    Y=             -0.0406    Z=              0.0000  Tot=              0.3737
 Quadrupole moment (field-independent basis, Debye-Ang):
   XX=             -7.9382   YY=              1.4579   ZZ=            -14.7089
   XY=             -0.3290   XZ=              0.0000   YZ=              0.0000

 Normal termination of Gaussian 16 at Sat Aug 27 06:27:02 2022.
