 Gaussian 16, Revision A.03,
 Gaussian 16:  ES64L-G16RevA.03 25-Dec-2016

 ------------------
 #p CCSD(T)/cc-pVTZ
 ------------------

 ------------
 H2O_H2O_1917
 ------------
 Symbolic Z-matrix:
 Charge =  0 Multiplicity = 1

                         Standard orientation:
 ---------------------------------------------------------------------
 Center     Atomic      Atomic             Coordinates (Angstroms)
 Number     Number       Type             X           Y           Z
 ---------------------------------------------------------------------
      1          8           0        0.051301   -1.779624    0.000000
      2          1           0       -0.749658   -2.348807    0.000000
      3          1           0        0.849479   -2.352700    0.000000
      4          8           0        0.051301    1.843079    0.000000
      5          1           0       -0.104929    2.813181    0.000000
      6          1           0       -0.815702    1.380680    0.000000
 ---------------------------------------------------------------------

 SCF Done:  E(RHF) =  -152.107008139     A.U. after   10 cycles
 E2 =    -0.5264591289D+00 EUMP2 =    -0.15263346726754D+03
 CCSD(T)
 CCSD(T)= -0.15266065046D+03

 The electronic state is 1-A'.
 Alpha  occ. eigenvalues --  -20.55452 -20.54182  -1.32726  -1.31457  -0.70141
 Alpha  occ. eigenvalues --   -0.68830  -0.56134  -0.54845  -0.49838  -0.48575
 Alpha virt. eigenvalues --    0.13438   0.16256   0.20069   0.22494   0.53941
 Alpha virt. eigenvalues --    0.54492   0.57330   0.58554   0.64664   0.76067
 Alpha virt. eigenvalues --    0.78487   0.78612   0.79787   0.80730   0.84905

 Mulliken charges:
               1
     1  O   -0.496701
     2  H    0.244803
     3  H    0.254724
     4  O   -0.501868
     5  H    0.241513
     6  H    0.257529
 Sum of Mulliken charges =   0.00000

 Dipole moment (field-independent basis, Debye):
    X=             -1.7169    Y=             -1.1787    Z=              0.0000  Tot=              2.0826
 Quadrupole moment (field-independent basis, Debye-Ang):
   XX=             -9.4677   YY=             -0.0915   ZZ=            -14.7150
   XY=             -2.6499   XZ=              0.0000   YZ=              0.0000

 Normal termination of Gaussian 16 at Sat Aug 27 07:32:10 2022.
