 Gaussian 16, Revision A.03,
 Gaussian 16:  ES64L-G16RevA.03 25-Dec-2016

 ------------------
 #p CCSD(T)/cc-pVTZ
 ------------------

 ------------
 H2O_H2O_2730
 ------------
 Symbolic Z-matrix:
 Charge =  0 Multiplicity = 1

                         Standard orientation:
 ---------------------------------------------------------------------
 Center     Atomic      Atomic             Coordinates (Angstroms)
 Number     Number       Type             X           Y           Z
 ---------------------------------------------------------------------
      1          8           0        0.018361   -2.249574    0.000000
      2          1           0       -0.781611   -2.820145    0.000000
      3          1           0        0.817531   -2.821267    0.000000
      4          8           0        0.018361    2.255611    0.000000
      5          1           0        0.592474    3.053044    0.000000
      6          1           0       -0.922162    2.540079    0.000000
 ---------------------------------------------------------------------

 SCF Done:  E(RHF) =  -152.105842967     A.U. after   10 cycles
 E2 =    -0.5260999069D+00 EUMP2 =    -0.15263194287370D+03
 CCSD(T)
 CCSD(T)= -0.15265918959D+03

 The electronic state is 1-A'.
 Alpha  occ. eigenvalues --  -20.54829 -20.54760  -1.32120  -1.32049  -0.69532
 Alpha  occ. eigenvalues --   -0.69459  -0.55515  -0.55388  -0.49221  -0.49150
 Alpha virt. eigenvalues --    0.14290   0.15186   0.20588   0.20906   0.54709
 Alpha virt. eigenvalues --    0.55385   0.57782   0.57938   0.65652   0.71922
 Alpha virt. eigenvalues --    0.79585   0.79789   0.81082   0.81191   0.82316

 Mulliken charges:
               1
     1  O   -0.499522
     2  H    0.248703
     3  H    0.250837
     4  O   -0.499350
     5  H    0.248319
     6  H    0.251013
 Sum of Mulliken charges =  -0.00000

 Dipole moment (field-independent basis, Debye):
    X=             -0.6248    Y=             -0.1074    Z=              0.0000  Tot=              0.6340
 Quadrupole moment (field-independent basis, Debye-Ang):
   XX=             -8.0324   YY=              5.6553   ZZ=            -14.7098
   XY=             -0.8890   XZ=              0.0000   YZ=              0.0000

 Normal termination of Gaussian 16 at Fri Aug 26 15:33:08 2022.
