 Gaussian 16, Revision A.03,
 Gaussian 16:  ES64L-G16RevA.03 25-Dec-2016

 ------------------
 #p CCSD(T)/cc-pVTZ
 ------------------

 -----------
 H2O_H2O_471
 -----------
 Symbolic Z-matrix:
 Charge =  0 Multiplicity = 1

                         Standard orientation:
 ---------------------------------------------------------------------
 Center     Atomic      Atomic             Coordinates (Angstroms)
 Number     Number       Type             X           Y           Z
 ---------------------------------------------------------------------
      1          8           0        0.056229   -0.993269    0.000000
      2          1           0       -0.745985   -1.560684    0.000000
      3          1           0        0.853140   -1.568105    0.000000
      4          8           0        0.056229    1.084690    0.000000
      5          1           0       -0.343779    1.982186    0.000000
      6          1           0       -0.663033    0.415235    0.000000
 ---------------------------------------------------------------------

 SCF Done:  E(RHF) =  -152.063918226     A.U. after   11 cycles
 E2 =    -0.5357495438D+00 EUMP2 =    -0.15259966776938D+03
 CCSD(T)
 CCSD(T)= -0.15262615345D+03

 The electronic state is 1-A'.
 Alpha  occ. eigenvalues --  -20.56004 -20.50476  -1.35629  -1.28057  -0.73136
 Alpha  occ. eigenvalues --   -0.69755  -0.53289  -0.52109  -0.51049  -0.45009
 Alpha virt. eigenvalues --    0.13161   0.18794   0.19366   0.26105   0.50324
 Alpha virt. eigenvalues --    0.55509   0.61704   0.64895   0.72189   0.74686
 Alpha virt. eigenvalues --    0.78634   0.81415   0.83784   0.85069   0.87624

 Mulliken charges:
               1
     1  O   -0.403271
     2  H    0.206221
     3  H    0.237563
     4  O   -0.486403
     5  H    0.188301
     6  H    0.257590
 Sum of Mulliken charges =  -0.00000

 Dipole moment (field-independent basis, Debye):
    X=             -1.6485    Y=             -2.0633    Z=              0.0000  Tot=              2.6410
 Quadrupole moment (field-independent basis, Debye-Ang):
   XX=             -9.8037   YY=             -6.3752   ZZ=            -14.6719
   XY=             -1.9560   XZ=              0.0000   YZ=              0.0000

 Normal termination of Gaussian 16 at Fri Aug 26 16:46:19 2022.
