 Gaussian 16, Revision A.03,
 Gaussian 16:  ES64L-G16RevA.03 25-Dec-2016

 ------------------
 #p CCSD(T)/cc-pVTZ
 ------------------

 ------------
 H2O_H2O_1343
 ------------
 Symbolic Z-matrix:
 Charge =  0 Multiplicity = 1

                         Standard orientation:
 ---------------------------------------------------------------------
 Center     Atomic      Atomic             Coordinates (Angstroms)
 Number     Number       Type             X           Y           Z
 ---------------------------------------------------------------------
      1          8           0        0.052872   -1.470156    0.000000
      2          1           0       -0.748419   -2.038873    0.000000
      3          1           0        0.850716   -2.043699    0.000000
      4          8           0        0.052872    1.540351    0.000000
      5          1           0       -0.165912    2.498287    0.000000
      6          1           0       -0.782334    1.022724    0.000000
 ---------------------------------------------------------------------

 SCF Done:  E(RHF) =  -152.106319145     A.U. after   10 cycles
 E2 =    -0.5273719064D+00 EUMP2 =    -0.15263369105183D+03
 CCSD(T)
 CCSD(T)= -0.15266084813D+03

 The electronic state is 1-A'.
 Alpha  occ. eigenvalues --  -20.55574 -20.53531  -1.32893  -1.30796  -0.70312
 Alpha  occ. eigenvalues --   -0.68244  -0.56277  -0.54098  -0.50010  -0.47905
 Alpha virt. eigenvalues --    0.13491   0.17001   0.19912   0.23652   0.53795
 Alpha virt. eigenvalues --    0.56003   0.57209   0.58357   0.67784   0.75536
 Alpha virt. eigenvalues --    0.76450   0.76988   0.80090   0.82133   0.84785

 Mulliken charges:
               1
     1  O   -0.485403
     2  H    0.238878
     3  H    0.254005
     4  O   -0.495156
     5  H    0.232054
     6  H    0.255623
 Sum of Mulliken charges =  -0.00000

 Dipole moment (field-independent basis, Debye):
    X=             -1.7235    Y=             -1.3585    Z=              0.0000  Tot=              2.1945
 Quadrupole moment (field-independent basis, Debye-Ang):
   XX=             -9.5838   YY=             -2.2698   ZZ=            -14.7210
   XY=             -2.3108   XZ=              0.0000   YZ=              0.0000

 Normal termination of Gaussian 16 at Sat Aug 27 04:06:19 2022.
