 Gaussian 16, Revision A.03,
 Gaussian 16:  ES64L-G16RevA.03 25-Dec-2016

 ------------------
 #p CCSD(T)/cc-pVTZ
 ------------------

 ------------
 H2O_H2O_1252
 ------------
 Symbolic Z-matrix:
 Charge =  0 Multiplicity = 1

                         Standard orientation:
 ---------------------------------------------------------------------
 Center     Atomic      Atomic             Coordinates (Angstroms)
 Number     Number       Type             X           Y           Z
 ---------------------------------------------------------------------
      1          8           0        0.007455   -1.467867    0.000000
      2          1           0       -0.792365   -2.038650    0.000000
      3          1           0        0.806776   -2.039349    0.000000
      4          8           0        0.007455    1.468838    0.000000
      5          1           0        0.725931    2.139135    0.000000
      6          1           0       -0.859622    1.931097    0.000000
 ---------------------------------------------------------------------

 SCF Done:  E(RHF) =  -152.100645155     A.U. after   10 cycles
 E2 =    -0.5275436860D+00 EUMP2 =    -0.15262818884092D+03
 CCSD(T)
 CCSD(T)= -0.15265549378D+03

 The electronic state is 1-A'.
 Alpha  occ. eigenvalues --  -20.53764 -20.53741  -1.31211  -1.30937  -0.68612
 Alpha  occ. eigenvalues --   -0.68408  -0.55729  -0.52660  -0.48423  -0.47870
 Alpha virt. eigenvalues --    0.14406   0.16816   0.20563   0.21920   0.51451
 Alpha virt. eigenvalues --    0.58381   0.58694   0.60375   0.67291   0.76265
 Alpha virt. eigenvalues --    0.77561   0.77992   0.79167   0.82920   0.86174

 Mulliken charges:
               1
     1  O   -0.470658
     2  H    0.233976
     3  H    0.236678
     4  O   -0.470146
     5  H    0.233948
     6  H    0.236201
 Sum of Mulliken charges =   0.00000

 Dipole moment (field-independent basis, Debye):
    X=             -0.2429    Y=             -0.0184    Z=              0.0000  Tot=              0.2436
 Quadrupole moment (field-independent basis, Debye-Ang):
   XX=             -7.9411   YY=             -0.7447   ZZ=            -14.7113
   XY=             -0.1567   XZ=              0.0000   YZ=              0.0000

 Normal termination of Gaussian 16 at Sat Aug 27 03:22:55 2022.
