 Gaussian 16, Revision A.03,
 Gaussian 16:  ES64L-G16RevA.03 25-Dec-2016

 ------------------
 #p CCSD(T)/cc-pVTZ
 ------------------

 -----------
 H2O_H2O_816
 -----------
 Symbolic Z-matrix:
 Charge =  0 Multiplicity = 1

                         Standard orientation:
 ---------------------------------------------------------------------
 Center     Atomic      Atomic             Coordinates (Angstroms)
 Number     Number       Type             X           Y           Z
 ---------------------------------------------------------------------
      1          8           0        0.049560   -1.198233    0.000000
      2          1           0       -0.751988   -1.766586    0.000000
      3          1           0        0.847144   -1.772137    0.000000
      4          8           0        0.049560    1.255002    0.000000
      5          1           0       -0.041873    2.233340    0.000000
      6          1           0       -0.846247    0.851225    0.000000
 ---------------------------------------------------------------------

 SCF Done:  E(RHF) =  -152.096696960     A.U. after   11 cycles
 E2 =    -0.5296860774D+00 EUMP2 =    -0.15262638303781D+03
 CCSD(T)
 CCSD(T)= -0.15265352651D+03

 The electronic state is 1-A'.
 Alpha  occ. eigenvalues --  -20.54850 -20.52746  -1.32618  -1.29973  -0.70000
 Alpha  occ. eigenvalues --   -0.67956  -0.56298  -0.52077  -0.49750  -0.46944
 Alpha virt. eigenvalues --    0.13760   0.17628   0.19994   0.23872   0.52906
 Alpha virt. eigenvalues --    0.57435   0.58814   0.60239   0.71063   0.75018
 Alpha virt. eigenvalues --    0.77846   0.81249   0.83085   0.85021   0.85513

 Mulliken charges:
               1
     1  O   -0.467349
     2  H    0.227962
     3  H    0.246734
     4  O   -0.467305
     5  H    0.211064
     6  H    0.248893
 Sum of Mulliken charges =  -0.00000

 Dipole moment (field-independent basis, Debye):
    X=             -1.5400    Y=             -1.1303    Z=              0.0000  Tot=              1.9103
 Quadrupole moment (field-independent basis, Debye-Ang):
   XX=             -9.4243   YY=             -3.8589   ZZ=            -14.7242
   XY=             -1.5119   XZ=              0.0000   YZ=              0.0000

 26427\MP4DQ=-152.6347948\MP4SDQ=-152.638039\CCSD=-152.6373799\CCSD(T)=
 Normal termination of Gaussian 16 at Fri Aug 26 20:16:29 2022.
