 Gaussian 16, Revision A.03,
 Gaussian 16:  ES64L-G16RevA.03 25-Dec-2016

 ------------------
 #p CCSD(T)/cc-pVTZ
 ------------------

 ------------
 H2O_H2O_4321
 ------------
 Symbolic Z-matrix:
 Charge =  0 Multiplicity = 1

                         Standard orientation:
 ---------------------------------------------------------------------
 Center     Atomic      Atomic             Coordinates (Angstroms)
 Number     Number       Type             X           Y           Z
 ---------------------------------------------------------------------
      1          8           0        0.056088   -3.040658    0.000000
      2          1           0       -0.744375   -3.610541    0.000000
      3          1           0        0.854765   -3.613039    0.000000
      4          8           0        0.056088    3.132425    0.000000
      5          1           0       -0.346682    4.028685    0.000000
      6          1           0       -0.661110    2.460760    0.000000
 ---------------------------------------------------------------------

 SCF Done:  E(RHF) =  -152.107547477     A.U. after   10 cycles
 E2 =    -0.5258703285D+00 EUMP2 =    -0.15263341780500D+03
 CCSD(T)
 CCSD(T)= -0.15266063470D+03

 The electronic state is 1-A'.
 Alpha  occ. eigenvalues --  -20.55677 -20.55119  -1.32976  -1.32418  -0.70382
 Alpha  occ. eigenvalues --   -0.69816  -0.56430  -0.55868  -0.50089  -0.49532
 Alpha virt. eigenvalues --    0.13986   0.14584   0.20090   0.20693   0.54176
 Alpha virt. eigenvalues --    0.54756   0.57108   0.57664   0.67700   0.68370
 Alpha virt. eigenvalues --    0.78791   0.79339   0.80219   0.80788   0.82185

 Mulliken charges:
               1
     1  O   -0.509725
     2  H    0.253581
     3  H    0.256147
     4  O   -0.509371
     5  H    0.252101
     6  H    0.257266
 Sum of Mulliken charges =  -0.00000

 Dipole moment (field-independent basis, Debye):
    X=             -1.9273    Y=             -1.6053    Z=              0.0000  Tot=              2.5082
 Quadrupole moment (field-independent basis, Debye-Ang):
   XX=             -9.7841   YY=              4.5924   ZZ=            -14.7124
   XY=             -5.8136   XZ=              0.0000   YZ=              0.0000

 Normal termination of Gaussian 16 at Sat Aug 27 06:39:29 2022.
