 Gaussian 16, Revision A.03,
 Gaussian 16:  ES64L-G16RevA.03 25-Dec-2016

 ------------------
 #p CCSD(T)/cc-pVTZ
 ------------------

 ------------
 H2O_H2O_4238
 ------------
 Symbolic Z-matrix:
 Charge =  0 Multiplicity = 1

                         Standard orientation:
 ---------------------------------------------------------------------
 Center     Atomic      Atomic             Coordinates (Angstroms)
 Number     Number       Type             X           Y           Z
 ---------------------------------------------------------------------
      1          8           0        0.042964   -3.029531    0.000000
      2          1           0       -0.757299   -3.599694    0.000000
      3          1           0        0.841842   -3.601632    0.000000
      4          8           0        0.042964    3.068339    0.000000
      5          1           0        0.141943    4.045943    0.000000
      6          1           0       -0.913902    2.844922    0.000000
 ---------------------------------------------------------------------

 SCF Done:  E(RHF) =  -152.107075964     A.U. after   10 cycles
 E2 =    -0.5259121640D+00 EUMP2 =    -0.15263298812827D+03
 CCSD(T)
 CCSD(T)= -0.15266021508D+03

 The electronic state is 1-A'.
 Alpha  occ. eigenvalues --  -20.55378 -20.55136  -1.32675  -1.32431  -0.70082
 Alpha  occ. eigenvalues --   -0.69833  -0.56107  -0.55864  -0.49784  -0.49542
 Alpha virt. eigenvalues --    0.14259   0.14524   0.20326   0.20587   0.54483
 Alpha virt. eigenvalues --    0.54745   0.57373   0.57616   0.68079   0.68385
 Alpha virt. eigenvalues --    0.79095   0.79334   0.80533   0.80795   0.82463

 Mulliken charges:
               1
     1  O   -0.506928
     2  H    0.252391
     3  H    0.254537
     4  O   -0.506732
     5  H    0.251649
     6  H    0.255083
 Sum of Mulliken charges =  -0.00000

 Dipole moment (field-independent basis, Debye):
    X=             -1.4756    Y=             -0.6785    Z=              0.0000  Tot=              1.6241
 Quadrupole moment (field-independent basis, Debye-Ang):
   XX=             -8.9649   YY=              9.3232   ZZ=            -14.7113
   XY=             -3.6813   XZ=              0.0000   YZ=              0.0000

 Normal termination of Gaussian 16 at Sat Aug 27 06:11:40 2022.
