 Gaussian 16, Revision A.03,
 Gaussian 16:  ES64L-G16RevA.03 25-Dec-2016

 ------------------
 #p CCSD(T)/cc-pVTZ
 ------------------

 ------------
 H2O_H2O_4264
 ------------
 Symbolic Z-matrix:
 Charge =  0 Multiplicity = 1

                         Standard orientation:
 ---------------------------------------------------------------------
 Center     Atomic      Atomic             Coordinates (Angstroms)
 Number     Number       Type             X           Y           Z
 ---------------------------------------------------------------------
      1          8           0        0.045339   -3.039695    0.000000
      2          1           0       -0.754959   -3.609808    0.000000
      3          1           0        0.844182   -3.611845    0.000000
      4          8           0        0.045339    3.084270    0.000000
      5          1           0        0.080229    4.066252    0.000000
      6          1           0       -0.894883    2.798807    0.000000
 ---------------------------------------------------------------------

 SCF Done:  E(RHF) =  -152.107131672     A.U. after   10 cycles
 E2 =    -0.5259070539D+00 EUMP2 =    -0.15263303872583D+03
 CCSD(T)
 CCSD(T)= -0.15266026449D+03

 The electronic state is 1-A'.
 Alpha  occ. eigenvalues --  -20.55413 -20.55137  -1.32710  -1.32433  -0.70117
 Alpha  occ. eigenvalues --   -0.69835  -0.56145  -0.55868  -0.49820  -0.49544
 Alpha virt. eigenvalues --    0.14228   0.14527   0.20298   0.20595   0.54446
 Alpha virt. eigenvalues --    0.54743   0.57342   0.57619   0.68038   0.68375
 Alpha virt. eigenvalues --    0.79060   0.79332   0.80496   0.80793   0.82427

 Mulliken charges:
               1
     1  O   -0.507259
     2  H    0.252514
     3  H    0.254746
     4  O   -0.507048
     5  H    0.251696
     6  H    0.255352
 Sum of Mulliken charges =  -0.00000

 Dipole moment (field-independent basis, Debye):
    X=             -1.5574    Y=             -0.7793    Z=              0.0000  Tot=              1.7415
 Quadrupole moment (field-independent basis, Debye-Ang):
   XX=             -9.0969   YY=              8.9159   ZZ=            -14.7114
   XY=             -3.9875   XZ=              0.0000   YZ=              0.0000

 Normal termination of Gaussian 16 at Sat Aug 27 06:19:57 2022.
