 Gaussian 16, Revision A.03,
 Gaussian 16:  ES64L-G16RevA.03 25-Dec-2016

 ------------------
 #p CCSD(T)/cc-pVTZ
 ------------------

 ------------
 H2O_H2O_4484
 ------------
 Symbolic Z-matrix:
 Charge =  0 Multiplicity = 1

                         Standard orientation:
 ---------------------------------------------------------------------
 Center     Atomic      Atomic             Coordinates (Angstroms)
 Number     Number       Type             X           Y           Z
 ---------------------------------------------------------------------
      1          8           0        0.031739   -3.173141    0.000000
      2          1           0       -0.768322   -3.743587    0.000000
      3          1           0        0.830819   -3.744959    0.000000
      4          8           0        0.031739    3.192337    0.000000
      5          1           0        0.380042    4.111136    0.000000
      6          1           0       -0.950358    3.223841    0.000000
 ---------------------------------------------------------------------

 SCF Done:  E(RHF) =  -152.106973711     A.U. after   10 cycles
 E2 =    -0.5259167382D+00 EUMP2 =    -0.15263289044945D+03
 CCSD(T)
 CCSD(T)= -0.15266011985D+03

 The electronic state is 1-A'.
 Alpha  occ. eigenvalues --  -20.55296 -20.55187  -1.32593  -1.32483  -0.69999
 Alpha  occ. eigenvalues --   -0.69887  -0.56020  -0.55910  -0.49701  -0.49591
 Alpha virt. eigenvalues --    0.14342   0.14457   0.20397   0.20512   0.54568
 Alpha virt. eigenvalues --    0.54686   0.57448   0.57557   0.68196   0.68322
 Alpha virt. eigenvalues --    0.79178   0.79286   0.80619   0.80738   0.82546

 Mulliken charges:
               1
     1  O   -0.506310
     2  H    0.252451
     3  H    0.253859
     4  O   -0.506214
     5  H    0.252053
     6  H    0.254161
 Sum of Mulliken charges =  -0.00000

 Dipole moment (field-independent basis, Debye):
    X=             -1.0907    Y=             -0.3350    Z=              0.0000  Tot=              1.1410
 Quadrupole moment (field-independent basis, Debye-Ang):
   XX=             -8.4366   YY=             11.8968   ZZ=            -14.7110
   XY=             -2.6679   XZ=              0.0000   YZ=              0.0000

 Normal termination of Gaussian 16 at Sat Aug 27 07:34:42 2022.
