 Gaussian 16, Revision A.03,
 Gaussian 16:  ES64L-G16RevA.03 25-Dec-2016

 ------------------
 #p CCSD(T)/cc-pVTZ
 ------------------

 -----------
 H2O_H2O_356
 -----------
 Symbolic Z-matrix:
 Charge =  0 Multiplicity = 1

                         Standard orientation:
 ---------------------------------------------------------------------
 Center     Atomic      Atomic             Coordinates (Angstroms)
 Number     Number       Type             X           Y           Z
 ---------------------------------------------------------------------
      1          8           0        0.021864   -0.985063    0.000000
      2          1           0       -0.778791   -1.554674    0.000000
      3          1           0        0.820348   -1.557715    0.000000
      4          8           0        0.021864    0.993675    0.000000
      5          1           0        0.543594    1.826325    0.000000
      6          1           0       -0.934982    1.217169    0.000000
 ---------------------------------------------------------------------

 SCF Done:  E(RHF) =  -152.047673236     A.U. after   11 cycles
 E2 =    -0.5357927514D+00 EUMP2 =    -0.15258346598787D+03
 CCSD(T)
 CCSD(T)= -0.15261020767D+03

 The electronic state is 1-A'.
 Alpha  occ. eigenvalues --  -20.52042 -20.51774  -1.32285  -1.28444  -0.68917
 Alpha  occ. eigenvalues --   -0.66735  -0.60801  -0.49441  -0.44903  -0.43577
 Alpha virt. eigenvalues --    0.14570   0.18348   0.20368   0.23045   0.51452
 Alpha virt. eigenvalues --    0.58585   0.58916   0.65483   0.69802   0.77827
 Alpha virt. eigenvalues --    0.78812   0.82826   0.84110   0.86432   0.87712

 Mulliken charges:
               1
     1  O   -0.432641
     2  H    0.208416
     3  H    0.222396
     4  O   -0.412214
     5  H    0.185270
     6  H    0.228773
 Sum of Mulliken charges =  -0.00000

 Dipole moment (field-independent basis, Debye):
    X=             -0.6347    Y=             -0.1834    Z=              0.0000  Tot=              0.6607
 Quadrupole moment (field-independent basis, Debye-Ang):
   XX=             -8.4265   YY=             -5.9024   ZZ=            -14.7441
   XY=             -0.2359   XZ=              0.0000   YZ=              0.0000

 Normal termination of Gaussian 16 at Fri Aug 26 15:36:40 2022.
