 Gaussian 16, Revision A.03,
 Gaussian 16:  ES64L-G16RevA.03 25-Dec-2016

 ------------------
 #p CCSD(T)/cc-pVTZ
 ------------------

 ------------
 H2O_H2O_4796
 ------------
 Symbolic Z-matrix:
 Charge =  0 Multiplicity = 1

                         Standard orientation:
 ---------------------------------------------------------------------
 Center     Atomic      Atomic             Coordinates (Angstroms)
 Number     Number       Type             X           Y           Z
 ---------------------------------------------------------------------
      1          8           0        0.056082   -3.293274    0.000000
      2          1           0       -0.744313   -3.863251    0.000000
      3          1           0        0.854828   -3.865560    0.000000
      4          8           0        0.056082    3.385054    0.000000
      5          1           0       -0.346793    4.281267    0.000000
      6          1           0       -0.661036    2.713303    0.000000
 ---------------------------------------------------------------------

 SCF Done:  E(RHF) =  -152.107528044     A.U. after   10 cycles
 E2 =    -0.5258649563D+00 EUMP2 =    -0.15263339300054D+03
 CCSD(T)
 CCSD(T)= -0.15266061079D+03

 The electronic state is 1-A'.
 Alpha  occ. eigenvalues --  -20.55671 -20.55200  -1.32970  -1.32499  -0.70376
 Alpha  occ. eigenvalues --   -0.69899  -0.56423  -0.55948  -0.50083  -0.49613
 Alpha virt. eigenvalues --    0.14013   0.14488   0.20096   0.20595   0.54184
 Alpha virt. eigenvalues --    0.54672   0.57113   0.57584   0.67752   0.68247
 Alpha virt. eigenvalues --    0.78797   0.79260   0.80226   0.80723   0.82151

 Mulliken charges:
               1
     1  O   -0.509596
     2  H    0.253781
     3  H    0.255815
     4  O   -0.509338
     5  H    0.252615
     6  H    0.256722
 Sum of Mulliken charges =   0.00000

 Dipole moment (field-independent basis, Debye):
    X=             -1.9291    Y=             -1.6009    Z=              0.0000  Tot=              2.5068
 Quadrupole moment (field-independent basis, Debye-Ang):
   XX=             -9.7846   YY=              5.7977   ZZ=            -14.7123
   XY=             -6.2979   XZ=              0.0000   YZ=              0.0000

 Normal termination of Gaussian 16 at Sat Aug 27 09:23:00 2022.
