 Gaussian 16, Revision A.03,
 Gaussian 16:  ES64L-G16RevA.03 25-Dec-2016

 ------------------
 #p CCSD(T)/cc-pVTZ
 ------------------

 ------------
 H2O_H2O_1077
 ------------
 Symbolic Z-matrix:
 Charge =  0 Multiplicity = 1

                         Standard orientation:
 ---------------------------------------------------------------------
 Center     Atomic      Atomic             Coordinates (Angstroms)
 Number     Number       Type             X           Y           Z
 ---------------------------------------------------------------------
      1          8           0        0.007455   -1.374796    0.000000
      2          1           0       -0.792382   -1.945555    0.000000
      3          1           0        0.806760   -1.946301    0.000000
      4          8           0        0.007455    1.375766    0.000000
      5          1           0        0.725951    2.046042    0.000000
      6          1           0       -0.859608    1.838052    0.000000
 ---------------------------------------------------------------------

 SCF Done:  E(RHF) =  -152.098219061     A.U. after   11 cycles
 E2 =    -0.5280713035D+00 EUMP2 =    -0.15262629036487D+03
 CCSD(T)
 CCSD(T)= -0.15265360825D+03

 The electronic state is 1-A'.
 Alpha  occ. eigenvalues --  -20.53512 -20.53486  -1.31096  -1.30643  -0.68468
 Alpha  occ. eigenvalues --   -0.68147  -0.56110  -0.51753  -0.48343  -0.47514
 Alpha virt. eigenvalues --    0.14448   0.17093   0.20563   0.22096   0.50922
 Alpha virt. eigenvalues --    0.58551   0.58782   0.61504   0.70815   0.76429
 Alpha virt. eigenvalues --    0.77058   0.78304   0.79546   0.83439   0.86310

 Mulliken charges:
               1
     1  O   -0.466139
     2  H    0.231481
     3  H    0.234585
     4  O   -0.465268
     5  H    0.231306
     6  H    0.234034
 Sum of Mulliken charges =  -0.00000

 Dipole moment (field-independent basis, Debye):
    X=             -0.2396    Y=             -0.0185    Z=              0.0000  Tot=              0.2403
 Quadrupole moment (field-independent basis, Debye-Ang):
   XX=             -7.9675   YY=             -1.6153   ZZ=            -14.7152
   XY=             -0.1351   XZ=              0.0000   YZ=              0.0000

 84\MP4DQ=-152.6350903\MP4SDQ=-152.6382775\CCSD=-152.6376436\CCSD(T)=-1
 Normal termination of Gaussian 16 at Sat Aug 27 01:53:38 2022.
