 Gaussian 16, Revision A.03,
 Gaussian 16:  ES64L-G16RevA.03 25-Dec-2016

 ------------------
 #p CCSD(T)/cc-pVTZ
 ------------------

 -----------
 H2O_H2O_836
 -----------
 Symbolic Z-matrix:
 Charge =  0 Multiplicity = 1

                         Standard orientation:
 ---------------------------------------------------------------------
 Center     Atomic      Atomic             Coordinates (Angstroms)
 Number     Number       Type             X           Y           Z
 ---------------------------------------------------------------------
      1          8           0        0.037694   -1.227073    0.000000
      2          1           0       -0.763366   -1.796115    0.000000
      3          1           0        0.835771   -1.800292    0.000000
      4          8           0        0.037694    1.255223    0.000000
      5          1           0        0.264768    2.211226    0.000000
      6          1           0       -0.940282    1.159982    0.000000
 ---------------------------------------------------------------------

 SCF Done:  E(RHF) =  -152.095006880     A.U. after   11 cycles
 E2 =    -0.5293204526D+00 EUMP2 =    -0.15262432733276D+03
 CCSD(T)
 CCSD(T)= -0.15265155886D+03

 The electronic state is 1-A'.
 Alpha  occ. eigenvalues --  -20.53920 -20.53015  -1.31664  -1.30201  -0.69011
 Alpha  occ. eigenvalues --   -0.67855  -0.56748  -0.51058  -0.48895  -0.47065
 Alpha virt. eigenvalues --    0.14177   0.17387   0.20318   0.22985   0.52896
 Alpha virt. eigenvalues --    0.58167   0.58274   0.61135   0.70491   0.76054
 Alpha virt. eigenvalues --    0.77231   0.79221   0.83536   0.85849   0.85858

 Mulliken charges:
               1
     1  O   -0.468338
     2  H    0.226241
     3  H    0.242510
     4  O   -0.453522
     5  H    0.212288
     6  H    0.240821
 Sum of Mulliken charges =  -0.00000

 Dipole moment (field-independent basis, Debye):
    X=             -1.1759    Y=             -0.5493    Z=              0.0000  Tot=              1.2978
 Quadrupole moment (field-independent basis, Debye-Ang):
   XX=             -8.8255   YY=             -3.2057   ZZ=            -14.7244
   XY=             -0.8355   XZ=              0.0000   YZ=              0.0000

 Normal termination of Gaussian 16 at Fri Aug 26 20:26:48 2022.
