 Gaussian 16, Revision A.03,
 Gaussian 16:  ES64L-G16RevA.03 25-Dec-2016

 ------------------
 #p CCSD(T)/cc-pVTZ
 ------------------

 -----------
 H2O_H2O_437
 -----------
 Symbolic Z-matrix:
 Charge =  0 Multiplicity = 1

                         Standard orientation:
 ---------------------------------------------------------------------
 Center     Atomic      Atomic             Coordinates (Angstroms)
 Number     Number       Type             X           Y           Z
 ---------------------------------------------------------------------
      1          8           0        0.040441   -1.011604    0.000000
      2          1           0       -0.761056   -1.580029    0.000000
      3          1           0        0.838077   -1.585436    0.000000
      4          8           0        0.040441    1.044787    0.000000
      5          1           0        0.205249    2.013468    0.000000
      6          1           0       -0.929333    0.886534    0.000000
 ---------------------------------------------------------------------

 SCF Done:  E(RHF) =  -152.064926653     A.U. after   11 cycles
 E2 =    -0.5341112181D+00 EUMP2 =    -0.15259903787113D+03
 CCSD(T)
 CCSD(T)= -0.15262594175D+03

 The electronic state is 1-A'.
 Alpha  occ. eigenvalues --  -20.53217 -20.52038  -1.32647  -1.28872  -0.69741
 Alpha  occ. eigenvalues --   -0.67670  -0.58341  -0.49737  -0.46817  -0.45543
 Alpha virt. eigenvalues --    0.14217   0.18066   0.20151   0.23537   0.53218
 Alpha virt. eigenvalues --    0.57489   0.58366   0.63331   0.71382   0.76410
 Alpha virt. eigenvalues --    0.79493   0.81751   0.83426   0.85491   0.88117

 Mulliken charges:
               1
     1  O   -0.442812
     2  H    0.211159
     3  H    0.230731
     4  O   -0.415739
     5  H    0.178909
     6  H    0.237752
 Sum of Mulliken charges =  -0.00000

 Dipole moment (field-independent basis, Debye):
    X=             -1.1820    Y=             -0.6748    Z=              0.0000  Tot=              1.3610
 Quadrupole moment (field-independent basis, Debye-Ang):
   XX=             -9.0265   YY=             -5.4614   ZZ=            -14.7241
   XY=             -0.7072   XZ=              0.0000   YZ=              0.0000

 Normal termination of Gaussian 16 at Fri Aug 26 16:27:18 2022.
