 Gaussian 16, Revision A.03,
 Gaussian 16:  ES64L-G16RevA.03 25-Dec-2016

 ------------------
 #p CCSD(T)/cc-pVTZ
 ------------------

 ------------
 H2O_H2O_1264
 ------------
 Symbolic Z-matrix:
 Charge =  0 Multiplicity = 1

                         Standard orientation:
 ---------------------------------------------------------------------
 Center     Atomic      Atomic             Coordinates (Angstroms)
 Number     Number       Type             X           Y           Z
 ---------------------------------------------------------------------
      1          8           0        0.045370   -1.444252    0.000000
      2          1           0       -0.755717   -2.013255    0.000000
      3          1           0        0.843419   -2.017508    0.000000
      4          8           0        0.045370    1.488701    0.000000
      5          1           0        0.081621    2.470633    0.000000
      6          1           0       -0.895247    1.204541    0.000000
 ---------------------------------------------------------------------

 SCF Done:  E(RHF) =  -152.103938698     A.U. after   10 cycles
 E2 =    -0.5275409547D+00 EUMP2 =    -0.15263147965246D+03
 CCSD(T)
 CCSD(T)= -0.15265869143D+03

 The electronic state is 1-A'.
 Alpha  occ. eigenvalues --  -20.54860 -20.53613  -1.32198  -1.30860  -0.69623
 Alpha  occ. eigenvalues --   -0.68296  -0.55936  -0.53634  -0.49329  -0.47929
 Alpha virt. eigenvalues --    0.13847   0.16901   0.20165   0.22883   0.53804
 Alpha virt. eigenvalues --    0.57308   0.57723   0.58408   0.67509   0.75937
 Alpha virt. eigenvalues --    0.76845   0.76973   0.80517   0.82562   0.85324

 Mulliken charges:
               1
     1  O   -0.480201
     2  H    0.234949
     3  H    0.248934
     4  O   -0.480098
     5  H    0.227872
     6  H    0.248544
 Sum of Mulliken charges =  -0.00000

 Dipole moment (field-independent basis, Debye):
    X=             -1.4716    Y=             -0.8534    Z=              0.0000  Tot=              1.7011
 Quadrupole moment (field-independent basis, Debye-Ang):
   XX=             -9.1513   YY=             -1.6889   ZZ=            -14.7175
   XY=             -1.5582   XZ=              0.0000   YZ=              0.0000

 Normal termination of Gaussian 16 at Sat Aug 27 03:28:20 2022.
