 Gaussian 16, Revision A.03,
 Gaussian 16:  ES64L-G16RevA.03 25-Dec-2016

 ------------------
 #p CCSD(T)/cc-pVTZ
 ------------------

 ------------
 H2O_H2O_4165
 ------------
 Symbolic Z-matrix:
 Charge =  0 Multiplicity = 1

                         Standard orientation:
 ---------------------------------------------------------------------
 Center     Atomic      Atomic             Coordinates (Angstroms)
 Number     Number       Type             X           Y           Z
 ---------------------------------------------------------------------
      1          8           0        0.047522   -2.983219    0.000000
      2          1           0       -0.752824   -3.553264    0.000000
      3          1           0        0.846317   -3.555437    0.000000
      4          8           0        0.047522    3.033856    0.000000
      5          1           0        0.018196    4.016020    0.000000
      6          1           0       -0.872046    2.687589    0.000000
 ---------------------------------------------------------------------

 SCF Done:  E(RHF) =  -152.107169560     A.U. after   10 cycles
 E2 =    -0.5259057831D+00 EUMP2 =    -0.15263307534271D+03
 CCSD(T)
 CCSD(T)= -0.15266030017D+03

 The electronic state is 1-A'.
 Alpha  occ. eigenvalues --  -20.55440 -20.55115  -1.32738  -1.32411  -0.70145
 Alpha  occ. eigenvalues --   -0.69812  -0.56174  -0.55847  -0.49848  -0.49522
 Alpha virt. eigenvalues --    0.14195   0.14558   0.20274   0.20628   0.54417
 Alpha virt. eigenvalues --    0.54767   0.57316   0.57644   0.67986   0.68414
 Alpha virt. eigenvalues --    0.79032   0.79352   0.80467   0.80814   0.82405

 Mulliken charges:
               1
     1  O   -0.507488
     2  H    0.252517
     3  H    0.254972
     4  O   -0.507241
     5  H    0.251565
     6  H    0.255675
 Sum of Mulliken charges =  -0.00000

 Dipole moment (field-independent basis, Debye):
    X=             -1.6319    Y=             -0.8860    Z=              0.0000  Tot=              1.8569
 Quadrupole moment (field-independent basis, Debye-Ang):
   XX=             -9.2246   YY=              8.0519   ZZ=            -14.7115
   XY=             -4.1837   XZ=              0.0000   YZ=              0.0000

 Normal termination of Gaussian 16 at Sat Aug 27 05:44:55 2022.
