 Gaussian 16, Revision A.03,
 Gaussian 16:  ES64L-G16RevA.03 25-Dec-2016

 ------------------
 #p CCSD(T)/cc-pVTZ
 ------------------

 ------------
 H2O_H2O_1282
 ------------
 Symbolic Z-matrix:
 Charge =  0 Multiplicity = 1

                         Standard orientation:
 ---------------------------------------------------------------------
 Center     Atomic      Atomic             Coordinates (Angstroms)
 Number     Number       Type             X           Y           Z
 ---------------------------------------------------------------------
      1          8           0        0.025269   -1.475332    0.000000
      2          1           0       -0.775139   -2.045290    0.000000
      3          1           0        0.824001   -2.047637    0.000000
      4          8           0        0.025269    1.487038    0.000000
      5          1           0        0.491048    2.352229    0.000000
      6          1           0       -0.944216    1.647052    0.000000
 ---------------------------------------------------------------------

 SCF Done:  E(RHF) =  -152.101722457     A.U. after   11 cycles
 E2 =    -0.5274807234D+00 EUMP2 =    -0.15262920318005D+03
 CCSD(T)
 CCSD(T)= -0.15265648239D+03

 The electronic state is 1-A'.
 Alpha  occ. eigenvalues --  -20.54055 -20.53762  -1.31419  -1.31009  -0.68836
 Alpha  occ. eigenvalues --   -0.68454  -0.55730  -0.53027  -0.48601  -0.47989
 Alpha virt. eigenvalues --    0.14251   0.16765   0.20487   0.22070   0.52215
 Alpha virt. eigenvalues --    0.58295   0.58547   0.59427   0.66880   0.76607
 Alpha virt. eigenvalues --    0.77506   0.78504   0.79314   0.82776   0.85956

 Mulliken charges:
               1
     1  O   -0.474972
     2  H    0.233340
     3  H    0.241883
     4  O   -0.471017
     5  H    0.230759
     6  H    0.240006
 Sum of Mulliken charges =  -0.00000

 Dipole moment (field-independent basis, Debye):
    X=             -0.8234    Y=             -0.2218    Z=              0.0000  Tot=              0.8527
 Quadrupole moment (field-independent basis, Debye-Ang):
   XX=             -8.2923   YY=             -0.8077   ZZ=            -14.7123
   XY=             -0.6238   XZ=              0.0000   YZ=              0.0000

 Normal termination of Gaussian 16 at Sat Aug 27 03:36:22 2022.
