 Gaussian 16, Revision A.03,
 Gaussian 16:  ES64L-G16RevA.03 25-Dec-2016

 ------------------
 #p CCSD(T)/cc-pVTZ
 ------------------

 ------------
 H2O_H2O_1169
 ------------
 Symbolic Z-matrix:
 Charge =  0 Multiplicity = 1

                         Standard orientation:
 ---------------------------------------------------------------------
 Center     Atomic      Atomic             Coordinates (Angstroms)
 Number     Number       Type             X           Y           Z
 ---------------------------------------------------------------------
      1          8           0        0.054210   -1.373306    0.000000
      2          1           0       -0.747240   -1.941798    0.000000
      3          1           0        0.851893   -1.947071    0.000000
      4          8           0        0.054210    1.450458    0.000000
      5          1           0       -0.226496    2.392112    0.000000
      6          1           0       -0.745513    0.879538    0.000000
 ---------------------------------------------------------------------

 SCF Done:  E(RHF) =  -152.105660893     A.U. after   10 cycles
 E2 =    -0.5279543282D+00 EUMP2 =    -0.15263361522147D+03
 CCSD(T)
 CCSD(T)= -0.15266074440D+03

 The electronic state is 1-A'.
 Alpha  occ. eigenvalues --  -20.55757 -20.53184  -1.33147  -1.30463  -0.70558
 Alpha  occ. eigenvalues --   -0.68063  -0.56383  -0.53787  -0.50259  -0.47562
 Alpha virt. eigenvalues --    0.13411   0.17320   0.19818   0.24230   0.52971
 Alpha virt. eigenvalues --    0.56952   0.57261   0.58839   0.69692   0.75306
 Alpha virt. eigenvalues --    0.75390   0.78498   0.81362   0.82451   0.84598

 Mulliken charges:
               1
     1  O   -0.482187
     2  H    0.237823
     3  H    0.254851
     4  O   -0.495556
     5  H    0.228267
     6  H    0.256802
 Sum of Mulliken charges =  -0.00000

 Dipole moment (field-independent basis, Debye):
    X=             -1.7458    Y=             -1.5222    Z=              0.0000  Tot=              2.3162
 Quadrupole moment (field-independent basis, Debye-Ang):
   XX=             -9.6738   YY=             -3.1245   ZZ=            -14.7242
   XY=             -2.3247   XZ=              0.0000   YZ=              0.0000

 Normal termination of Gaussian 16 at Sat Aug 27 02:41:39 2022.
