 Gaussian 16, Revision A.03,
 Gaussian 16:  ES64L-G16RevA.03 25-Dec-2016

 ------------------
 #p CCSD(T)/cc-pVTZ
 ------------------

 ------------
 H2O_H2O_3334
 ------------
 Symbolic Z-matrix:
 Charge =  0 Multiplicity = 1

                         Standard orientation:
 ---------------------------------------------------------------------
 Center     Atomic      Atomic             Coordinates (Angstroms)
 Number     Number       Type             X           Y           Z
 ---------------------------------------------------------------------
      1          8           0        0.031741   -2.561536    0.000000
      2          1           0       -0.768437   -3.131819    0.000000
      3          1           0        0.830704   -3.133517    0.000000
      4          8           0        0.031741    2.580720    0.000000
      5          1           0        0.380232    3.499447    0.000000
      6          1           0       -0.950349    2.612423    0.000000
 ---------------------------------------------------------------------

 SCF Done:  E(RHF) =  -152.106528230     A.U. after   10 cycles
 E2 =    -0.5259859736D+00 EUMP2 =    -0.15263251420355D+03
 CCSD(T)
 CCSD(T)= -0.15265975117D+03

 The electronic state is 1-A'.
 Alpha  occ. eigenvalues --  -20.55114 -20.54945  -1.32408  -1.32238  -0.69817
 Alpha  occ. eigenvalues --   -0.69642  -0.55814  -0.55644  -0.49513  -0.49344
 Alpha virt. eigenvalues --    0.14332   0.14803   0.20477   0.20739   0.54704
 Alpha virt. eigenvalues --    0.54969   0.57588   0.57770   0.67709   0.69392
 Alpha virt. eigenvalues --    0.79363   0.79531   0.80793   0.81016   0.82742

 Mulliken charges:
               1
     1  O   -0.503711
     2  H    0.250570
     3  H    0.253148
     4  O   -0.503453
     5  H    0.249900
     6  H    0.253545
 Sum of Mulliken charges =  -0.00000

 Dipole moment (field-independent basis, Debye):
    X=             -1.0857    Y=             -0.3379    Z=              0.0000  Tot=              1.1371
 Quadrupole moment (field-independent basis, Debye-Ang):
   XX=             -8.4426   YY=              7.3953   ZZ=            -14.7105
   XY=             -2.0085   XZ=              0.0000   YZ=              0.0000

 Normal termination of Gaussian 16 at Fri Aug 26 21:27:26 2022.
