 Gaussian 16, Revision A.03,
 Gaussian 16:  ES64L-G16RevA.03 25-Dec-2016

 ------------------
 #p CCSD(T)/cc-pVTZ
 ------------------

 ------------
 H2O_H2O_3168
 ------------
 Symbolic Z-matrix:
 Charge =  0 Multiplicity = 1

                         Standard orientation:
 ---------------------------------------------------------------------
 Center     Atomic      Atomic             Coordinates (Angstroms)
 Number     Number       Type             X           Y           Z
 ---------------------------------------------------------------------
      1          8           0        0.052830   -2.440693    0.000000
      2          1           0       -0.747787   -3.010357    0.000000
      3          1           0        0.851352   -3.013291    0.000000
      4          8           0        0.052830    2.511013    0.000000
      5          1           0       -0.167087    3.468688    0.000000
      6          1           0       -0.781763    1.992398    0.000000
 ---------------------------------------------------------------------

 SCF Done:  E(RHF) =  -152.107307593     A.U. after   10 cycles
 E2 =    -0.5259488349D+00 EUMP2 =    -0.15263325642792D+03
 CCSD(T)
 CCSD(T)= -0.15266047298D+03

 The electronic state is 1-A'.
 Alpha  occ. eigenvalues --  -20.55533 -20.54840  -1.32829  -1.32134  -0.70236
 Alpha  occ. eigenvalues --   -0.69525  -0.56269  -0.55572  -0.49939  -0.49248
 Alpha virt. eigenvalues --    0.13777   0.15075   0.20149   0.21070   0.54238
 Alpha virt. eigenvalues --    0.54950   0.57242   0.57856   0.67043   0.69932
 Alpha virt. eigenvalues --    0.78944   0.79617   0.80216   0.80828   0.82780

 Mulliken charges:
               1
     1  O   -0.507941
     2  H    0.251704
     3  H    0.256410
     4  O   -0.507574
     5  H    0.249554
     6  H    0.257847
 Sum of Mulliken charges =  -0.00000

 Dipole moment (field-independent basis, Debye):
    X=             -1.8057    Y=             -1.2467    Z=              0.0000  Tot=              2.1943
 Quadrupole moment (field-independent basis, Debye-Ang):
   XX=             -9.5589   YY=              3.3242   ZZ=            -14.7124
   XY=             -4.0225   XZ=              0.0000   YZ=              0.0000

 Normal termination of Gaussian 16 at Fri Aug 26 20:01:00 2022.
