 Gaussian 16, Revision A.03,
 Gaussian 16:  ES64L-G16RevA.03 25-Dec-2016

 ------------------
 #p CCSD(T)/cc-pVTZ
 ------------------

 -----------
 H2O_H2O_242
 -----------
 Symbolic Z-matrix:
 Charge =  0 Multiplicity = 1

                         Standard orientation:
 ---------------------------------------------------------------------
 Center     Atomic      Atomic             Coordinates (Angstroms)
 Number     Number       Type             X           Y           Z
 ---------------------------------------------------------------------
      1          8           0        0.051375   -0.888924    0.000000
      2          1           0       -0.750922   -1.456219    0.000000
      3          1           0        0.848201   -1.463879    0.000000
      4          8           0        0.051375    0.952138    0.000000
      5          1           0       -0.102569    1.922605    0.000000
      6          1           0       -0.816714    0.491782    0.000000
 ---------------------------------------------------------------------

 SCF Done:  E(RHF) =  -152.016282549     A.U. after   11 cycles
 E2 =    -0.5407183811D+00 EUMP2 =    -0.15255700093034D+03
 CCSD(T)
 CCSD(T)= -0.15258318053D+03

 The electronic state is 1-A'.
 Alpha  occ. eigenvalues --  -20.54007 -20.50888  -1.35877  -1.27536  -0.73252
 Alpha  occ. eigenvalues --   -0.69571  -0.55668  -0.51999  -0.45099  -0.44390
 Alpha virt. eigenvalues --    0.13721   0.18846   0.19639   0.24579   0.51763
 Alpha virt. eigenvalues --    0.56347   0.60142   0.65046   0.72794   0.76386
 Alpha virt. eigenvalues --    0.80723   0.81461   0.84037   0.84061   0.88449

 Mulliken charges:
               1
     1  O   -0.381098
     2  H    0.181766
     3  H    0.217587
     4  O   -0.412586
     5  H    0.150742
     6  H    0.243588
 Sum of Mulliken charges =  -0.00000

 Dipole moment (field-independent basis, Debye):
    X=             -1.4214    Y=             -1.3803    Z=              0.0000  Tot=              1.9813
 Quadrupole moment (field-independent basis, Debye-Ang):
   XX=             -9.5883   YY=             -7.1696   ZZ=            -14.6571
   XY=             -1.1332   XZ=              0.0000   YZ=              0.0000

 Normal termination of Gaussian 16 at Fri Aug 26 14:25:33 2022.
