 Gaussian 16, Revision A.03,
 Gaussian 16:  ES64L-G16RevA.03 25-Dec-2016

 ------------------
 #p CCSD(T)/cc-pVTZ
 ------------------

 ------------
 H2O_H2O_4523
 ------------
 Symbolic Z-matrix:
 Charge =  0 Multiplicity = 1

                         Standard orientation:
 ---------------------------------------------------------------------
 Center     Atomic      Atomic             Coordinates (Angstroms)
 Number     Number       Type             X           Y           Z
 ---------------------------------------------------------------------
      1          8           0        0.057073   -3.138981    0.000000
      2          1           0       -0.743375   -3.708884    0.000000
      3          1           0        0.855765   -3.711341    0.000000
      4          8           0        0.057073    3.245561    0.000000
      5          1           0       -0.459258    4.081569    0.000000
      6          1           0       -0.566299    2.486014    0.000000
 ---------------------------------------------------------------------

 SCF Done:  E(RHF) =  -152.107649719     A.U. after   10 cycles
 E2 =    -0.5258574807D+00 EUMP2 =    -0.15263350719989D+03
 CCSD(T)
 CCSD(T)= -0.15266072220D+03

 The electronic state is 1-A'.
 Alpha  occ. eigenvalues --  -20.55747 -20.55148  -1.33047  -1.32448  -0.70453
 Alpha  occ. eigenvalues --   -0.69846  -0.56505  -0.55900  -0.50160  -0.49563
 Alpha virt. eigenvalues --    0.13935   0.14557   0.20035   0.20677   0.54106
 Alpha virt. eigenvalues --    0.54724   0.57046   0.57643   0.67638   0.68310
 Alpha virt. eigenvalues --    0.78720   0.79308   0.80146   0.80764   0.82096

 Mulliken charges:
               1
     1  O   -0.510324
     2  H    0.254018
     3  H    0.256308
     4  O   -0.509963
     5  H    0.252495
     6  H    0.257465
 Sum of Mulliken charges =  -0.00000

 Dipole moment (field-independent basis, Debye):
    X=             -1.9621    Y=             -1.8621    Z=              0.0000  Tot=              2.7051
 Quadrupole moment (field-independent basis, Debye-Ang):
   XX=             -9.8551   YY=              3.4897   ZZ=            -14.7126
   XY=             -6.3881   XZ=              0.0000   YZ=              0.0000

 Normal termination of Gaussian 16 at Sat Aug 27 07:48:22 2022.
