 Gaussian 16, Revision A.03,
 Gaussian 16:  ES64L-G16RevA.03 25-Dec-2016

 ------------------
 #p CCSD(T)/cc-pVTZ
 ------------------

 ------------
 H2O_H2O_1362
 ------------
 Symbolic Z-matrix:
 Charge =  0 Multiplicity = 1

                         Standard orientation:
 ---------------------------------------------------------------------
 Center     Atomic      Atomic             Coordinates (Angstroms)
 Number     Number       Type             X           Y           Z
 ---------------------------------------------------------------------
      1          8           0        0.040423   -1.503506    0.000000
      2          1           0       -0.760452   -2.072808    0.000000
      3          1           0        0.838686   -2.076465    0.000000
      4          8           0        0.040423    1.536778    0.000000
      5          1           0        0.204170    2.505640    0.000000
      6          1           0       -0.929178    1.377464    0.000000
 ---------------------------------------------------------------------

 SCF Done:  E(RHF) =  -152.103828575     A.U. after   10 cycles
 E2 =    -0.5272989115D+00 EUMP2 =    -0.15263112748656D+03
 CCSD(T)
 CCSD(T)= -0.15265835805D+03

 The electronic state is 1-A'.
 Alpha  occ. eigenvalues --  -20.54645 -20.53789  -1.31960  -1.31040  -0.69386
 Alpha  occ. eigenvalues --   -0.68455  -0.55771  -0.53730  -0.49090  -0.48105
 Alpha virt. eigenvalues --    0.13957   0.16723   0.20288   0.22451   0.53433
 Alpha virt. eigenvalues --    0.57205   0.57909   0.58700   0.66158   0.76344
 Alpha virt. eigenvalues --    0.77435   0.77737   0.79855   0.82387   0.85510

 Mulliken charges:
               1
     1  O   -0.480846
     2  H    0.235502
     3  H    0.247417
     4  O   -0.479188
     5  H    0.230284
     6  H    0.246831
 Sum of Mulliken charges =   0.00000

 Dipole moment (field-independent basis, Debye):
    X=             -1.3206    Y=             -0.6325    Z=              0.0000  Tot=              1.4642
 Quadrupole moment (field-independent basis, Debye-Ang):
   XX=             -8.8879   YY=             -0.9749   ZZ=            -14.7145
   XY=             -1.3175   XZ=              0.0000   YZ=              0.0000

 Normal termination of Gaussian 16 at Sat Aug 27 04:14:46 2022.
