 Gaussian 16, Revision A.03,
 Gaussian 16:  ES64L-G16RevA.03 25-Dec-2016

 ------------------
 #p CCSD(T)/cc-pVTZ
 ------------------

 ------------
 H2O_H2O_4687
 ------------
 Symbolic Z-matrix:
 Charge =  0 Multiplicity = 1

                         Standard orientation:
 ---------------------------------------------------------------------
 Center     Atomic      Atomic             Coordinates (Angstroms)
 Number     Number       Type             X           Y           Z
 ---------------------------------------------------------------------
      1          8           0        0.040403   -3.271810    0.000000
      2          1           0       -0.759772   -3.842097    0.000000
      3          1           0        0.839370   -3.843787    0.000000
      4          8           0        0.040403    3.305181    0.000000
      5          1           0        0.202958    4.274244    0.000000
      6          1           0       -0.929001    3.144675    0.000000
 ---------------------------------------------------------------------

 SCF Done:  E(RHF) =  -152.107120183     A.U. after   10 cycles
 E2 =    -0.5259019649D+00 EUMP2 =    -0.15263302214775D+03
 CCSD(T)
 CCSD(T)= -0.15266024855D+03

 The electronic state is 1-A'.
 Alpha  occ. eigenvalues --  -20.55389 -20.55211  -1.32686  -1.32507  -0.70093
 Alpha  occ. eigenvalues --   -0.69911  -0.56120  -0.55942  -0.49795  -0.49617
 Alpha virt. eigenvalues --    0.14263   0.14443   0.20324   0.20510   0.54473
 Alpha virt. eigenvalues --    0.54663   0.57366   0.57544   0.68090   0.68274
 Alpha virt. eigenvalues --    0.79084   0.79260   0.80521   0.80713   0.82447

 Mulliken charges:
               1
     1  O   -0.507177
     2  H    0.252776
     3  H    0.254401
     4  O   -0.507050
     5  H    0.252234
     6  H    0.254816
 Sum of Mulliken charges =  -0.00000

 Dipole moment (field-independent basis, Debye):
    X=             -1.3892    Y=             -0.5820    Z=              0.0000  Tot=              1.5061
 Quadrupole moment (field-independent basis, Debye-Ang):
   XX=             -8.8299   YY=             11.4133   ZZ=            -14.7113
   XY=             -3.7228   XZ=              0.0000   YZ=              0.0000

 Normal termination of Gaussian 16 at Sat Aug 27 08:45:29 2022.
