 Gaussian 16, Revision A.03,
 Gaussian 16:  ES64L-G16RevA.03 25-Dec-2016

 ------------------
 #p CCSD(T)/cc-pVTZ
 ------------------

 ------------
 H2O_H2O_4159
 ------------
 Symbolic Z-matrix:
 Charge =  0 Multiplicity = 1

                         Standard orientation:
 ---------------------------------------------------------------------
 Center     Atomic      Atomic             Coordinates (Angstroms)
 Number     Number       Type             X           Y           Z
 ---------------------------------------------------------------------
      1          8           0        0.031739   -3.000296    0.000000
      2          1           0       -0.768350   -3.570702    0.000000
      3          1           0        0.830791   -3.572153    0.000000
      4          8           0        0.031739    3.019489    0.000000
      5          1           0        0.380088    3.938270    0.000000
      6          1           0       -0.950356    3.051041    0.000000
 ---------------------------------------------------------------------

 SCF Done:  E(RHF) =  -152.106880978     A.U. after   10 cycles
 E2 =    -0.5259296964D+00 EUMP2 =    -0.15263281067440D+03
 CCSD(T)
 CCSD(T)= -0.15266004176D+03

 The electronic state is 1-A'.
 Alpha  occ. eigenvalues --  -20.55254 -20.55132  -1.32551  -1.32427  -0.69958
 Alpha  occ. eigenvalues --   -0.69832  -0.55973  -0.55851  -0.49658  -0.49535
 Alpha virt. eigenvalues --    0.14365   0.14514   0.20423   0.20557   0.54609
 Alpha virt. eigenvalues --    0.54745   0.57482   0.57606   0.68214   0.68425
 Alpha virt. eigenvalues --    0.79221   0.79342   0.80662   0.80797   0.82593

 Mulliken charges:
               1
     1  O   -0.505768
     2  H    0.252058
     3  H    0.253710
     4  O   -0.505644
     5  H    0.251602
     6  H    0.254042
 Sum of Mulliken charges =  -0.00000

 Dipole moment (field-independent basis, Debye):
    X=             -1.0897    Y=             -0.3356    Z=              0.0000  Tot=              1.1402
 Quadrupole moment (field-independent basis, Debye-Ang):
   XX=             -8.4378   YY=             10.6292   ZZ=            -14.7109
   XY=             -2.4810   XZ=              0.0000   YZ=              0.0000

 Normal termination of Gaussian 16 at Sat Aug 27 05:42:46 2022.
