 Gaussian 16, Revision A.03,
 Gaussian 16:  ES64L-G16RevA.03 25-Dec-2016

 ------------------
 #p CCSD(T)/cc-pVTZ
 ------------------

 ------------
 H2O_H2O_3807
 ------------
 Symbolic Z-matrix:
 Charge =  0 Multiplicity = 1

                         Standard orientation:
 ---------------------------------------------------------------------
 Center     Atomic      Atomic             Coordinates (Angstroms)
 Number     Number       Type             X           Y           Z
 ---------------------------------------------------------------------
      1          8           0        0.025265   -2.818200    0.000000
      2          1           0       -0.774745   -3.388717    0.000000
      3          1           0        0.824396   -3.389948    0.000000
      4          8           0        0.025265    2.829941    0.000000
      5          1           0        0.490440    3.695458    0.000000
      6          1           0       -0.944332    2.989280    0.000000
 ---------------------------------------------------------------------

 SCF Done:  E(RHF) =  -152.106674712     A.U. after   10 cycles
 E2 =    -0.5259547429D+00 EUMP2 =    -0.15263262945439D+03
 CCSD(T)
 CCSD(T)= -0.15265986452D+03

 The electronic state is 1-A'.
 Alpha  occ. eigenvalues --  -20.55152 -20.55067  -1.32447  -1.32361  -0.69855
 Alpha  occ. eigenvalues --   -0.69767  -0.55860  -0.55774  -0.49553  -0.49468
 Alpha virt. eigenvalues --    0.14419   0.14593   0.20489   0.20602   0.54708
 Alpha virt. eigenvalues --    0.54816   0.57567   0.57658   0.68203   0.68661
 Alpha virt. eigenvalues --    0.79325   0.79409   0.80770   0.80867   0.82706

 Mulliken charges:
               1
     1  O   -0.504555
     2  H    0.251490
     3  H    0.253065
     4  O   -0.504444
     5  H    0.251111
     6  H    0.253333
 Sum of Mulliken charges =  -0.00000

 Dipole moment (field-independent basis, Debye):
    X=             -0.8662    Y=             -0.2058    Z=              0.0000  Tot=              0.8903
 Quadrupole moment (field-independent basis, Debye-Ang):
   XX=             -8.2079   YY=              9.7765   ZZ=            -14.7105
   XY=             -1.7560   XZ=              0.0000   YZ=              0.0000

 93141\MP4DQ=-152.6417534\MP4SDQ=-152.644815\CCSD=-152.644226\CCSD(T)=-
 Normal termination of Gaussian 16 at Sat Aug 27 03:28:48 2022.
