 Gaussian 16, Revision A.03,
 Gaussian 16:  ES64L-G16RevA.03 25-Dec-2016

 ------------------
 #p CCSD(T)/cc-pVTZ
 ------------------

 ------------
 H2O_H2O_1183
 ------------
 Symbolic Z-matrix:
 Charge =  0 Multiplicity = 1

                         Standard orientation:
 ---------------------------------------------------------------------
 Center     Atomic      Atomic             Coordinates (Angstroms)
 Number     Number       Type             X           Y           Z
 ---------------------------------------------------------------------
      1          8           0        0.028570   -1.420248    0.000000
      2          1           0       -0.771984   -1.990002    0.000000
      3          1           0        0.827156   -1.992755    0.000000
      4          8           0        0.028570    1.435453    0.000000
      5          1           0        0.436993    2.329152    0.000000
      6          1           0       -0.949281    1.531965    0.000000
 ---------------------------------------------------------------------

 SCF Done:  E(RHF) =  -152.100952426     A.U. after   11 cycles
 E2 =    -0.5277506486D+00 EUMP2 =    -0.15262870307479D+03
 CCSD(T)
 CCSD(T)= -0.15265598138D+03

 The electronic state is 1-A'.
 Alpha  occ. eigenvalues --  -20.54029 -20.53626  -1.31430  -1.30867  -0.68840
 Alpha  occ. eigenvalues --   -0.68323  -0.55900  -0.52687  -0.48623  -0.47829
 Alpha virt. eigenvalues --    0.14235   0.16898   0.20457   0.22253   0.52285
 Alpha virt. eigenvalues --    0.58308   0.58604   0.59821   0.68217   0.76519
 Alpha virt. eigenvalues --    0.77141   0.78017   0.80311   0.83050   0.85951

 Mulliken charges:
               1
     1  O   -0.473808
     2  H    0.231882
     3  H    0.242093
     4  O   -0.467527
     5  H    0.227626
     6  H    0.239733
 Sum of Mulliken charges =  -0.00000

 Dipole moment (field-independent basis, Debye):
    X=             -0.9238    Y=             -0.2897    Z=              0.0000  Tot=              0.9681
 Quadrupole moment (field-independent basis, Debye-Ang):
   XX=             -8.4123   YY=             -1.3360   ZZ=            -14.7143
   XY=             -0.6873   XZ=              0.0000   YZ=              0.0000

 Normal termination of Gaussian 16 at Sat Aug 27 02:48:09 2022.
