 Gaussian 16, Revision A.03,
 Gaussian 16:  ES64L-G16RevA.03 25-Dec-2016

 ------------------
 #p CCSD(T)/cc-pVTZ
 ------------------

 ------------
 H2O_H2O_2676
 ------------
 Symbolic Z-matrix:
 Charge =  0 Multiplicity = 1

                         Standard orientation:
 ---------------------------------------------------------------------
 Center     Atomic      Atomic             Coordinates (Angstroms)
 Number     Number       Type             X           Y           Z
 ---------------------------------------------------------------------
      1          8           0        0.003735   -2.226129    0.000000
      2          1           0       -0.795918   -2.797145    0.000000
      3          1           0        0.803224   -2.797376    0.000000
      4          8           0        0.003735    2.226372    0.000000
      5          1           0        0.764331    2.848466    0.000000
      6          1           0       -0.831403    2.744108    0.000000
 ---------------------------------------------------------------------

 SCF Done:  E(RHF) =  -152.105668412     A.U. after   10 cycles
 E2 =    -0.5261212601D+00 EUMP2 =    -0.15263178967223D+03
 CCSD(T)
 CCSD(T)= -0.15265903948D+03

 The electronic state is 1-A'.
 Alpha  occ. eigenvalues --  -20.54749 -20.54746  -1.32040  -1.32035  -0.69453
 Alpha  occ. eigenvalues --   -0.69447  -0.55459  -0.55330  -0.49144  -0.49129
 Alpha virt. eigenvalues --    0.14335   0.15213   0.20632   0.20901   0.54765
 Alpha virt. eigenvalues --    0.55487   0.57822   0.57963   0.65262   0.72263
 Alpha virt. eigenvalues --    0.79623   0.79847   0.81183   0.81220   0.82141

 Mulliken charges:
               1
     1  O   -0.498455
     2  H    0.249004
     3  H    0.249451
     4  O   -0.498447
     5  H    0.248950
     6  H    0.249497
 Sum of Mulliken charges =  -0.00000

 Dipole moment (field-independent basis, Debye):
    X=             -0.1270    Y=             -0.0043    Z=              0.0000  Tot=              0.1271
 Quadrupole moment (field-independent basis, Debye-Ang):
   XX=             -7.8327   YY=              5.6997   ZZ=            -14.7095
   XY=             -0.1708   XZ=              0.0000   YZ=              0.0000

 Normal termination of Gaussian 16 at Fri Aug 26 14:58:00 2022.
