 Gaussian 16, Revision A.03,
 Gaussian 16:  ES64L-G16RevA.03 25-Dec-2016

 ------------------
 #p CCSD(T)/cc-pVTZ
 ------------------

 -----------
 H2O_H2O_560
 -----------
 Symbolic Z-matrix:
 Charge =  0 Multiplicity = 1

                         Standard orientation:
 ---------------------------------------------------------------------
 Center     Atomic      Atomic             Coordinates (Angstroms)
 Number     Number       Type             X           Y           Z
 ---------------------------------------------------------------------
      1          8           0        0.034800   -1.083390    0.000000
      2          1           0       -0.766329   -1.652334    0.000000
      3          1           0        0.832807   -1.656705    0.000000
      4          8           0        0.034800    1.106804    0.000000
      5          1           0        0.324028    2.045874    0.000000
      6          1           0       -0.947314    1.075849    0.000000
 ---------------------------------------------------------------------

 SCF Done:  E(RHF) =  -152.078346079     A.U. after   11 cycles
 E2 =    -0.5319597100D+00 EUMP2 =    -0.15261030578898D+03
 CCSD(T)
 CCSD(T)= -0.15263739702D+03

 The electronic state is 1-A'.
 Alpha  occ. eigenvalues --  -20.53182 -20.52397  -1.31864  -1.29382  -0.69008
 Alpha  occ. eigenvalues --   -0.67460  -0.58176  -0.49102  -0.48027  -0.46061
 Alpha virt. eigenvalues --    0.14331   0.17812   0.20322   0.23176   0.52693
 Alpha virt. eigenvalues --    0.58028   0.58408   0.63092   0.70721   0.76409
 Alpha virt. eigenvalues --    0.78240   0.81341   0.83720   0.86010   0.87689

 Mulliken charges:
               1
     1  O   -0.455639
     2  H    0.218071
     3  H    0.235916
     4  O   -0.429963
     5  H    0.193796
     6  H    0.237819
 Sum of Mulliken charges =  -0.00000

 Dipole moment (field-independent basis, Debye):
    X=             -1.0428    Y=             -0.4677    Z=              0.0000  Tot=              1.1429
 Quadrupole moment (field-independent basis, Debye-Ang):
   XX=             -8.7610   YY=             -4.6256   ZZ=            -14.7318
   XY=             -0.5765   XZ=              0.0000   YZ=              0.0000

 Normal termination of Gaussian 16 at Fri Aug 26 17:39:04 2022.
