 Gaussian 16, Revision A.03,
 Gaussian 16:  ES64L-G16RevA.03 25-Dec-2016

 ------------------
 #p CCSD(T)/cc-pVTZ
 ------------------

 -----------
 H2O_H2O_331
 -----------
 Symbolic Z-matrix:
 Charge =  0 Multiplicity = 1

                         Standard orientation:
 ---------------------------------------------------------------------
 Center     Atomic      Atomic             Coordinates (Angstroms)
 Number     Number       Type             X           Y           Z
 ---------------------------------------------------------------------
      1          8           0        0.021865   -0.971768    0.000000
      2          1           0       -0.778806   -1.541358    0.000000
      3          1           0        0.820333   -1.544440    0.000000
      4          8           0        0.021865    0.980379    0.000000
      5          1           0        0.543616    1.813014    0.000000
      6          1           0       -0.934976    1.203898    0.000000
 ---------------------------------------------------------------------

 SCF Done:  E(RHF) =  -152.042506407     A.U. after   11 cycles
 E2 =    -0.5364590861D+00 EUMP2 =    -0.15257896549305D+03
 CCSD(T)
 CCSD(T)= -0.15260563133D+03

 The electronic state is 1-A'.
 Alpha  occ. eigenvalues --  -20.51966 -20.51700  -1.32454  -1.28322  -0.69012
 Alpha  occ. eigenvalues --   -0.66705  -0.61096  -0.49577  -0.44764  -0.43021
 Alpha virt. eigenvalues --    0.14570   0.18412   0.20344   0.23072   0.51491
 Alpha virt. eigenvalues --    0.58532   0.58927   0.65593   0.69731   0.77956
 Alpha virt. eigenvalues --    0.78937   0.82936   0.84096   0.86404   0.87773

 Mulliken charges:
               1
     1  O   -0.429308
     2  H    0.206633
     3  H    0.220906
     4  O   -0.408476
     5  H    0.182298
     6  H    0.227948
 Sum of Mulliken charges =  -0.00000

 Dipole moment (field-independent basis, Debye):
    X=             -0.6320    Y=             -0.1853    Z=              0.0000  Tot=              0.6586
 Quadrupole moment (field-independent basis, Debye-Ang):
   XX=             -8.4392   YY=             -6.0906   ZZ=            -14.7443
   XY=             -0.2337   XZ=              0.0000   YZ=              0.0000

 Normal termination of Gaussian 16 at Fri Aug 26 15:21:15 2022.
