 Gaussian 16, Revision A.03,
 Gaussian 16:  ES64L-G16RevA.03 25-Dec-2016

 ------------------
 #p CCSD(T)/cc-pVTZ
 ------------------

 ------------
 H2O_H2O_4185
 ------------
 Symbolic Z-matrix:
 Charge =  0 Multiplicity = 1

                         Standard orientation:
 ---------------------------------------------------------------------
 Center     Atomic      Atomic             Coordinates (Angstroms)
 Number     Number       Type             X           Y           Z
 ---------------------------------------------------------------------
      1          8           0        0.034780   -3.011234    0.000000
      2          1           0       -0.765356   -3.581574    0.000000
      3          1           0        0.833785   -3.583157    0.000000
      4          8           0        0.034780    3.034769    0.000000
      5          1           0        0.322370    3.974343    0.000000
      6          1           0       -0.947279    3.002103    0.000000
 ---------------------------------------------------------------------

 SCF Done:  E(RHF) =  -152.106927461     A.U. after   10 cycles
 E2 =    -0.5259254221D+00 EUMP2 =    -0.15263285288296D+03
 CCSD(T)
 CCSD(T)= -0.15266008299D+03

 The electronic state is 1-A'.
 Alpha  occ. eigenvalues --  -20.55283 -20.55135  -1.32580  -1.32430  -0.69987
 Alpha  occ. eigenvalues --   -0.69834  -0.56005  -0.55855  -0.49688  -0.49538
 Alpha virt. eigenvalues --    0.14341   0.14514   0.20400   0.20562   0.54579
 Alpha virt. eigenvalues --    0.54743   0.57456   0.57607   0.68185   0.68411
 Alpha virt. eigenvalues --    0.79191   0.79339   0.80632   0.80795   0.82562

 Mulliken charges:
               1
     1  O   -0.506045
     2  H    0.252129
     3  H    0.253916
     4  O   -0.505903
     5  H    0.251608
     6  H    0.254295
 Sum of Mulliken charges =  -0.00000

 Dipole moment (field-independent basis, Debye):
    X=             -1.1942    Y=             -0.4115    Z=              0.0000  Tot=              1.2631
 Quadrupole moment (field-independent basis, Debye-Ang):
   XX=             -8.5649   YY=             10.3873   ZZ=            -14.7110
   XY=             -2.7818   XZ=              0.0000   YZ=              0.0000

 Normal termination of Gaussian 16 at Sat Aug 27 05:52:08 2022.
