 Gaussian 16, Revision A.03,
 Gaussian 16:  ES64L-G16RevA.03 25-Dec-2016

 ------------------
 #p CCSD(T)/cc-pVTZ
 ------------------

 -----------
 H2O_H2O_172
 -----------
 Symbolic Z-matrix:
 Charge =  0 Multiplicity = 1

                         Standard orientation:
 ---------------------------------------------------------------------
 Center     Atomic      Atomic             Coordinates (Angstroms)
 Number     Number       Type             X           Y           Z
 ---------------------------------------------------------------------
      1          8           0        0.056899   -0.829769    0.000000
      2          1           0       -0.745826   -1.396459    0.000000
      3          1           0        0.853291   -1.405326    0.000000
      4          8           0        0.056899    0.928457    0.000000
      5          1           0       -0.400166    1.798283    0.000000
      6          1           0       -0.617684    0.214003    0.000000
 ---------------------------------------------------------------------

 SCF Done:  E(RHF) =  -151.954712266     A.U. after   11 cycles
 E2 =    -0.5468578115D+00 EUMP2 =    -0.15250157007713D+03
 CCSD(T)
 CCSD(T)= -0.15252647823D+03

 The electronic state is 1-A'.
 Alpha  occ. eigenvalues --  -20.56522 -20.47705  -1.40959  -1.25836  -0.78531
 Alpha  occ. eigenvalues --   -0.72550  -0.55205  -0.50640  -0.44505  -0.42746
 Alpha virt. eigenvalues --    0.12767   0.18181   0.20341   0.26600   0.49220
 Alpha virt. eigenvalues --    0.53637   0.62908   0.69088   0.73295   0.75600
 Alpha virt. eigenvalues --    0.78108   0.79169   0.84336   0.85245   0.88627

 Mulliken charges:
               1
     1  O   -0.303158
     2  H    0.171651
     3  H    0.219860
     4  O   -0.501728
     5  H    0.145088
     6  H    0.268287
 Sum of Mulliken charges =   0.00000

 Dipole moment (field-independent basis, Debye):
    X=             -1.5139    Y=             -2.5478    Z=              0.0000  Tot=              2.9637
 Quadrupole moment (field-independent basis, Debye-Ang):
   XX=             -9.8269   YY=             -8.4321   ZZ=            -14.5566
   XY=             -1.7336   XZ=              0.0000   YZ=              0.0000

 Normal termination of Gaussian 16 at Fri Aug 26 13:36:46 2022.
