 Gaussian 16, Revision A.03,
 Gaussian 16:  ES64L-G16RevA.03 25-Dec-2016

 ------------------
 #p CCSD(T)/cc-pVTZ
 ------------------

 ------------
 H2O_H2O_2776
 ------------
 Symbolic Z-matrix:
 Charge =  0 Multiplicity = 1

                         Standard orientation:
 ---------------------------------------------------------------------
 Center     Atomic      Atomic             Coordinates (Angstroms)
 Number     Number       Type             X           Y           Z
 ---------------------------------------------------------------------
      1          8           0        0.003735   -2.279313    0.000000
      2          1           0       -0.795916   -2.850332    0.000000
      3          1           0        0.803226   -2.850557    0.000000
      4          8           0        0.003735    2.279556    0.000000
      5          1           0        0.764329    2.901652    0.000000
      6          1           0       -0.831405    2.797288    0.000000
 ---------------------------------------------------------------------

 SCF Done:  E(RHF) =  -152.105776670     A.U. after   10 cycles
 E2 =    -0.5260955479D+00 EUMP2 =    -0.15263187221793D+03
 CCSD(T)
 CCSD(T)= -0.15265912136D+03

 The electronic state is 1-A'.
 Alpha  occ. eigenvalues --  -20.54787 -20.54784  -1.32078  -1.32074  -0.69490
 Alpha  occ. eigenvalues --   -0.69486  -0.55489  -0.55391  -0.49181  -0.49170
 Alpha virt. eigenvalues --    0.14363   0.15131   0.20627   0.20861   0.54803
 Alpha virt. eigenvalues --    0.55373   0.57804   0.57925   0.65856   0.71685
 Alpha virt. eigenvalues --    0.79615   0.79778   0.81143   0.81180   0.82301

 Mulliken charges:
               1
     1  O   -0.499174
     2  H    0.249377
     3  H    0.249797
     4  O   -0.499166
     5  H    0.249324
     6  H    0.249842
 Sum of Mulliken charges =  -0.00000

 Dipole moment (field-independent basis, Debye):
    X=             -0.1272    Y=             -0.0043    Z=              0.0000  Tot=              0.1273
 Quadrupole moment (field-independent basis, Debye-Ang):
   XX=             -7.8305   YY=              6.1327   ZZ=            -14.7096
   XY=             -0.1774   XZ=              0.0000   YZ=              0.0000

 Normal termination of Gaussian 16 at Fri Aug 26 16:03:53 2022.
