 Gaussian 16, Revision A.03,
 Gaussian 16:  ES64L-G16RevA.03 25-Dec-2016

 ------------------
 #p CCSD(T)/cc-pVTZ
 ------------------

 ------------
 H2O_H2O_2340
 ------------
 Symbolic Z-matrix:
 Charge =  0 Multiplicity = 1

                         Standard orientation:
 ---------------------------------------------------------------------
 Center     Atomic      Atomic             Coordinates (Angstroms)
 Number     Number       Type             X           Y           Z
 ---------------------------------------------------------------------
      1          8           0        0.047539   -2.012650    0.000000
      2          1           0       -0.753176   -2.582177    0.000000
      3          1           0        0.845962   -2.585385    0.000000
      4          8           0        0.047539    2.063225    0.000000
      5          1           0        0.018848    3.045408    0.000000
      6          1           0       -0.872254    1.717554    0.000000
 ---------------------------------------------------------------------

 SCF Done:  E(RHF) =  -152.106695118     A.U. after   10 cycles
 E2 =    -0.5261833239D+00 EUMP2 =    -0.15263287844202D+03
 CCSD(T)
 CCSD(T)= -0.15266009021D+03

 The electronic state is 1-A'.
 Alpha  occ. eigenvalues --  -20.55273 -20.54507  -1.32557  -1.31789  -0.69969
 Alpha  occ. eigenvalues --   -0.69175  -0.55960  -0.55185  -0.49664  -0.48902
 Alpha virt. eigenvalues --    0.13596   0.15738   0.20217   0.21614   0.53783
 Alpha virt. eigenvalues --    0.54937   0.57479   0.58214   0.64987   0.74548
 Alpha virt. eigenvalues --    0.79097   0.79865   0.80073   0.81685   0.83633

 Mulliken charges:
               1
     1  O   -0.501588
     2  H    0.247687
     3  H    0.254787
     4  O   -0.502602
     5  H    0.245409
     6  H    0.256308
 Sum of Mulliken charges =  -0.00000

 Dipole moment (field-independent basis, Debye):
    X=             -1.6081    Y=             -0.9174    Z=              0.0000  Tot=              1.8514
 Quadrupole moment (field-independent basis, Debye-Ang):
   XX=             -9.2319   YY=              1.9536   ZZ=            -14.7125
   XY=             -2.6235   XZ=              0.0000   YZ=              0.0000

 Normal termination of Gaussian 16 at Sat Aug 27 09:58:18 2022.
