 Gaussian 16, Revision A.03,
 Gaussian 16:  ES64L-G16RevA.03 25-Dec-2016

 ------------------
 #p CCSD(T)/cc-pVTZ
 ------------------

 ------------
 H2O_H2O_1448
 ------------
 Symbolic Z-matrix:
 Charge =  0 Multiplicity = 1

                         Standard orientation:
 ---------------------------------------------------------------------
 Center     Atomic      Atomic             Coordinates (Angstroms)
 Number     Number       Type             X           Y           Z
 ---------------------------------------------------------------------
      1          8           0        0.057159   -1.503681    0.000000
      2          1           0       -0.744208   -2.072290    0.000000
      3          1           0        0.854926   -2.077329    0.000000
      4          8           0        0.057159    1.610077    0.000000
      5          1           0       -0.457822    2.446917    0.000000
      6          1           0       -0.567439    0.851535    0.000000
 ---------------------------------------------------------------------

 SCF Done:  E(RHF) =  -152.109475773     A.U. after   10 cycles
 E2 =    -0.5272215526D+00 EUMP2 =    -0.15263669732518D+03
 CCSD(T)
 CCSD(T)= -0.15266378068D+03

 The electronic state is 1-A'.
 Alpha  occ. eigenvalues --  -20.56538 -20.53325  -1.33841  -1.30651  -0.71235
 Alpha  occ. eigenvalues --   -0.68154  -0.57236  -0.54150  -0.50958  -0.47785
 Alpha virt. eigenvalues --    0.12971   0.17195   0.19581   0.25430   0.52238
 Alpha virt. eigenvalues --    0.55681   0.56689   0.58550   0.68439   0.74973
 Alpha virt. eigenvalues --    0.75672   0.77127   0.81446   0.81718   0.84075

 Mulliken charges:
               1
     1  O   -0.493476
     2  H    0.245869
     3  H    0.260247
     4  O   -0.515890
     5  H    0.238012
     6  H    0.265237
 Sum of Mulliken charges =  -0.00000

 Dipole moment (field-independent basis, Debye):
    X=             -1.8790    Y=             -2.0870    Z=              0.0000  Tot=              2.8082
 Quadrupole moment (field-independent basis, Debye-Ang):
   XX=             -9.8530   YY=             -3.6016   ZZ=            -14.7261
   XY=             -3.2448   XZ=              0.0000   YZ=              0.0000

 Normal termination of Gaussian 16 at Sat Aug 27 04:49:20 2022.
