 Gaussian 16, Revision A.03,
 Gaussian 16:  ES64L-G16RevA.03 25-Dec-2016

 ------------------
 #p CCSD(T)/cc-pVTZ
 ------------------

 ------------
 H2O_H2O_2738
 ------------
 Symbolic Z-matrix:
 Charge =  0 Multiplicity = 1

                         Standard orientation:
 ---------------------------------------------------------------------
 Center     Atomic      Atomic             Coordinates (Angstroms)
 Number     Number       Type             X           Y           Z
 ---------------------------------------------------------------------
      1          8           0        0.042972   -2.231796    0.000000
      2          1           0       -0.757536   -2.801614    0.000000
      3          1           0        0.841604   -2.804240    0.000000
      4          8           0        0.042972    2.270566    0.000000
      5          1           0        0.142371    3.248127    0.000000
      6          1           0       -0.913990    2.047561    0.000000
 ---------------------------------------------------------------------

 SCF Done:  E(RHF) =  -152.106554520     A.U. after   10 cycles
 E2 =    -0.5260570721D+00 EUMP2 =    -0.15263261159164D+03
 CCSD(T)
 CCSD(T)= -0.15265984067D+03

 The electronic state is 1-A'.
 Alpha  occ. eigenvalues --  -20.55182 -20.54721  -1.32473  -1.32008  -0.69884
 Alpha  occ. eigenvalues --   -0.69404  -0.55876  -0.55411  -0.49579  -0.49117
 Alpha virt. eigenvalues --    0.13912   0.15302   0.20333   0.21125   0.54315
 Alpha virt. eigenvalues --    0.55116   0.57534   0.57951   0.66080   0.71959
 Alpha virt. eigenvalues --    0.79281   0.79769   0.80527   0.81504   0.82906

 Mulliken charges:
               1
     1  O   -0.503334
     2  H    0.249256
     3  H    0.254278
     4  O   -0.502981
     5  H    0.247679
     6  H    0.255102
 Sum of Mulliken charges =  -0.00000

 Dipole moment (field-independent basis, Debye):
    X=             -1.4625    Y=             -0.6922    Z=              0.0000  Tot=              1.6181
 Quadrupole moment (field-independent basis, Debye-Ang):
   XX=             -8.9710   YY=              3.9856   ZZ=            -14.7112
   XY=             -2.5202   XZ=              0.0000   YZ=              0.0000

 Normal termination of Gaussian 16 at Fri Aug 26 15:37:45 2022.
