 Gaussian 16, Revision A.03,
 Gaussian 16:  ES64L-G16RevA.03 25-Dec-2016

 ------------------
 #p CCSD(T)/cc-pVTZ
 ------------------

 ------------
 H2O_H2O_1930
 ------------
 Symbolic Z-matrix:
 Charge =  0 Multiplicity = 1

                         Standard orientation:
 ---------------------------------------------------------------------
 Center     Atomic      Atomic             Coordinates (Angstroms)
 Number     Number       Type             X           Y           Z
 ---------------------------------------------------------------------
      1          8           0        0.018361   -1.824109    0.000000
      2          1           0       -0.781704   -2.394549    0.000000
      3          1           0        0.817438   -2.395932    0.000000
      4          8           0        0.018361    1.830139    0.000000
      5          1           0        0.592605    2.627478    0.000000
      6          1           0       -0.922115    2.114760    0.000000
 ---------------------------------------------------------------------

 SCF Done:  E(RHF) =  -152.104635084     A.U. after   10 cycles
 E2 =    -0.5265191616D+00 EUMP2 =    -0.15263115424538D+03
 CCSD(T)
 CCSD(T)= -0.15265840084D+03

 The electronic state is 1-A'.
 Alpha  occ. eigenvalues --  -20.54474 -20.54365  -1.31756  -1.31638  -0.69178
 Alpha  occ. eigenvalues --   -0.69055  -0.55349  -0.54610  -0.48871  -0.48714
 Alpha virt. eigenvalues --    0.14143   0.15967   0.20570   0.21373   0.53536
 Alpha virt. eigenvalues --    0.56651   0.57976   0.58328   0.61675   0.75787
 Alpha virt. eigenvalues --    0.79189   0.79742   0.80748   0.80875   0.83160

 Mulliken charges:
               1
     1  O   -0.489077
     2  H    0.242811
     3  H    0.246447
     4  O   -0.489063
     5  H    0.242269
     6  H    0.246614
 Sum of Mulliken charges =  -0.00000

 Dipole moment (field-independent basis, Debye):
    X=             -0.6158    Y=             -0.1112    Z=              0.0000  Tot=              0.6258
 Quadrupole moment (field-independent basis, Debye-Ang):
   XX=             -8.0576   YY=              2.2396   ZZ=            -14.7094
   XY=             -0.6283   XZ=              0.0000   YZ=              0.0000

 Normal termination of Gaussian 16 at Sat Aug 27 07:36:51 2022.
