 Gaussian 16, Revision A.03,
 Gaussian 16:  ES64L-G16RevA.03 25-Dec-2016

 ------------------
 #p CCSD(T)/cc-pVTZ
 ------------------

 ------------
 H2O_H2O_4715
 ------------
 Symbolic Z-matrix:
 Charge =  0 Multiplicity = 1

                         Standard orientation:
 ---------------------------------------------------------------------
 Center     Atomic      Atomic             Coordinates (Angstroms)
 Number     Number       Type             X           Y           Z
 ---------------------------------------------------------------------
      1          8           0        0.047519   -3.275724    0.000000
      2          1           0       -0.752758   -3.845865    0.000000
      3          1           0        0.846382   -3.847845    0.000000
      4          8           0        0.047519    3.326372    0.000000
      5          1           0        0.018075    4.308532    0.000000
      6          1           0       -0.872007    2.979994    0.000000
 ---------------------------------------------------------------------

 SCF Done:  E(RHF) =  -152.107244519     A.U. after   10 cycles
 E2 =    -0.5258909937D+00 EUMP2 =    -0.15263313551243D+03
 CCSD(T)
 CCSD(T)= -0.15266035926D+03

 The electronic state is 1-A'.
 Alpha  occ. eigenvalues --  -20.55475 -20.55207  -1.32773  -1.32504  -0.70180
 Alpha  occ. eigenvalues --   -0.69906  -0.56213  -0.55944  -0.49884  -0.49616
 Alpha virt. eigenvalues --    0.14187   0.14457   0.20254   0.20536   0.54384
 Alpha virt. eigenvalues --    0.54668   0.57288   0.57557   0.67987   0.68265
 Alpha virt. eigenvalues --    0.78996   0.79261   0.80430   0.80718   0.82355

 Mulliken charges:
               1
     1  O   -0.507915
     2  H    0.253021
     3  H    0.254894
     4  O   -0.507747
     5  H    0.252284
     6  H    0.255463
 Sum of Mulliken charges =  -0.00000

 Dipole moment (field-independent basis, Debye):
    X=             -1.6341    Y=             -0.8834    Z=              0.0000  Tot=              1.8576
 Quadrupole moment (field-independent basis, Debye-Ang):
   XX=             -9.2243   YY=              9.8717   ZZ=            -14.7116
   XY=             -4.6581   XZ=              0.0000   YZ=              0.0000

 Normal termination of Gaussian 16 at Sat Aug 27 08:54:52 2022.
