 Gaussian 16, Revision A.03,
 Gaussian 16:  ES64L-G16RevA.03 25-Dec-2016

 ------------------
 #p CCSD(T)/cc-pVTZ
 ------------------

 ----------
 H2O_H2O_38
 ----------
 Symbolic Z-matrix:
 Charge =  0 Multiplicity = 1

                         Standard orientation:
 ---------------------------------------------------------------------
 Center     Atomic      Atomic             Coordinates (Angstroms)
 Number     Number       Type             X           Y           Z
 ---------------------------------------------------------------------
      1          8           0        0.043028   -0.795967    0.000000
      2          1           0       -0.759125   -1.363468    0.000000
      3          1           0        0.840001   -1.370719    0.000000
      4          8           0        0.043028    0.834489    0.000000
      5          1           0        0.145254    1.811759    0.000000
      6          1           0       -0.914575    0.614253    0.000000
 ---------------------------------------------------------------------

 SCF Done:  E(RHF) =  -151.930734265     A.U. after   12 cycles
 E2 =    -0.5500201097D+00 EUMP2 =    -0.15248075437448D+03
 CCSD(T)
 CCSD(T)= -0.15250556334D+03

 The electronic state is 1-A'.
 Alpha  occ. eigenvalues --  -20.52873 -20.51426  -1.38502  -1.26590  -0.74461
 Alpha  occ. eigenvalues --   -0.70367  -0.59303  -0.53856  -0.43319  -0.36631
 Alpha virt. eigenvalues --    0.13907   0.19050   0.19804   0.23843   0.52881
 Alpha virt. eigenvalues --    0.56222   0.58575   0.65865   0.73411   0.77355
 Alpha virt. eigenvalues --    0.81061   0.81648   0.82073   0.83910   0.89192

 Mulliken charges:
               1
     1  O   -0.329822
     2  H    0.151192
     3  H    0.188099
     4  O   -0.333965
     5  H    0.091932
     6  H    0.232564
 Sum of Mulliken charges =  -0.00000

 Dipole moment (field-independent basis, Debye):
    X=             -1.1371    Y=             -0.9269    Z=              0.0000  Tot=              1.4670
 Quadrupole moment (field-independent basis, Debye-Ang):
   XX=             -9.2827   YY=             -9.0135   ZZ=            -14.6486
   XY=             -0.6316   XZ=              0.0000   YZ=              0.0000

 30653\MP4DQ=-152.4842149\MP4SDQ=-152.488426\CCSD=-152.4871556\CCSD(T)=
 Normal termination of Gaussian 16 at Fri Aug 26 12:09:49 2022.
