 Gaussian 16, Revision A.03,
 Gaussian 16:  ES64L-G16RevA.03 25-Dec-2016

 ------------------
 #p CCSD(T)/cc-pVTZ
 ------------------

 ------------
 H2O_H2O_3150
 ------------
 Symbolic Z-matrix:
 Charge =  0 Multiplicity = 1

                         Standard orientation:
 ---------------------------------------------------------------------
 Center     Atomic      Atomic             Coordinates (Angstroms)
 Number     Number       Type             X           Y           Z
 ---------------------------------------------------------------------
      1          8           0        0.000000   -0.000000    2.478884
      2          1           0        0.000000    0.799571    3.050016
      3          1           0       -0.000000   -0.799571    3.050016
      4          8           0        0.000000   -0.000000   -2.478884
      5          1           0       -0.000000   -0.799571   -3.050016
      6          1           0        0.000000    0.799571   -3.050016
 ---------------------------------------------------------------------

 SCF Done:  E(RHF) =  -152.106121194     A.U. after   10 cycles
 E2 =    -0.5260282069D+00 EUMP2 =    -0.15263214940069D+03
 CCSD(T)
 CCSD(T)= -0.15265939458D+03

 The electronic state is 1-AG.
 Alpha  occ. eigenvalues --  -20.54909 -20.54909  -1.32202  -1.32201  -0.69612
 Alpha  occ. eigenvalues --   -0.69611  -0.55602  -0.55570  -0.49305  -0.49302
 Alpha virt. eigenvalues --    0.14447   0.14871   0.20603   0.20736   0.54851
 Alpha virt. eigenvalues --    0.55074   0.57738   0.57802   0.67410   0.69975
 Alpha virt. eigenvalues --    0.79549   0.79594   0.80982   0.81076   0.82685

 Mulliken charges:
               1
     1  O   -0.501292
     2  H    0.250646
     3  H    0.250646
     4  O   -0.501292
     5  H    0.250646
     6  H    0.250646
 Sum of Mulliken charges =  -0.00000

 Dipole moment (field-independent basis, Debye):
    X=             -0.0000    Y=              0.0000    Z=              0.0000  Tot=              0.0000
 Quadrupole moment (field-independent basis, Debye-Ang):
   XX=            -14.7098   YY=             -7.8151   ZZ=              7.7639
   XY=              0.0000   XZ=              0.0000   YZ=             -0.0000

 2\MP4DQ=-152.6412687\MP4SDQ=-152.6443357\CCSD=-152.6437447\CCSD(T)=-15
 Normal termination of Gaussian 16 at Fri Aug 26 19:50:25 2022.
