 Gaussian 16, Revision A.03,
 Gaussian 16:  ES64L-G16RevA.03 25-Dec-2016

 ------------------
 #p CCSD(T)/cc-pVTZ
 ------------------

 ------------
 H2O_H2O_3315
 ------------
 Symbolic Z-matrix:
 Charge =  0 Multiplicity = 1

                         Standard orientation:
 ---------------------------------------------------------------------
 Center     Atomic      Atomic             Coordinates (Angstroms)
 Number     Number       Type             X           Y           Z
 ---------------------------------------------------------------------
      1          8           0        0.047528   -2.531170    0.000000
      2          1           0       -0.752955   -3.101023    0.000000
      3          1           0        0.846185   -3.103580    0.000000
      4          8           0        0.047528    2.581784    0.000000
      5          1           0        0.018438    3.563955    0.000000
      6          1           0       -0.872123    2.235738    0.000000
 ---------------------------------------------------------------------

 SCF Done:  E(RHF) =  -152.106992770     A.U. after   10 cycles
 E2 =    -0.5259542419D+00 EUMP2 =    -0.15263294701178D+03
 CCSD(T)
 CCSD(T)= -0.15266017298D+03

 The electronic state is 1-A'.
 Alpha  occ. eigenvalues --  -20.55370 -20.54911  -1.32666  -1.32204  -0.70074
 Alpha  occ. eigenvalues --   -0.69600  -0.56093  -0.55631  -0.49774  -0.49315
 Alpha virt. eigenvalues --    0.14048   0.14906   0.20278   0.20882   0.54434
 Alpha virt. eigenvalues --    0.54965   0.57373   0.57811   0.67432   0.69458
 Alpha virt. eigenvalues --    0.79106   0.79555   0.80492   0.80965   0.82710

 Mulliken charges:
               1
     1  O   -0.506400
     2  H    0.251265
     3  H    0.255184
     4  O   -0.505964
     5  H    0.249780
     6  H    0.256136
 Sum of Mulliken charges =   0.00000

 Dipole moment (field-independent basis, Debye):
    X=             -1.6260    Y=             -0.8936    Z=              0.0000  Tot=              1.8553
 Quadrupole moment (field-independent basis, Debye-Ang):
   XX=             -9.2256   YY=              5.2250   ZZ=            -14.7115
   XY=             -3.4540   XZ=              0.0000   YZ=              0.0000

 Normal termination of Gaussian 16 at Fri Aug 26 21:18:11 2022.
