 Gaussian 16, Revision A.03,
 Gaussian 16:  ES64L-G16RevA.03 25-Dec-2016

 ------------------
 #p CCSD(T)/cc-pVTZ
 ------------------

 ------------
 H2O_H2O_2966
 ------------
 Symbolic Z-matrix:
 Charge =  0 Multiplicity = 1

                         Standard orientation:
 ---------------------------------------------------------------------
 Center     Atomic      Atomic             Coordinates (Angstroms)
 Number     Number       Type             X           Y           Z
 ---------------------------------------------------------------------
      1          8           0        0.049513   -2.341594    0.000000
      2          1           0       -0.751083   -2.911289    0.000000
      3          1           0        0.848056   -2.914162    0.000000
      4          8           0        0.049513    2.398530    0.000000
      5          1           0       -0.043559    3.376713    0.000000
      6          1           0       -0.845617    1.993254    0.000000
 ---------------------------------------------------------------------

 SCF Done:  E(RHF) =  -152.107026554     A.U. after   10 cycles
 E2 =    -0.5259910436D+00 EUMP2 =    -0.15263301759742D+03
 CCSD(T)
 CCSD(T)= -0.15266023867D+03

 The electronic state is 1-A'.
 Alpha  occ. eigenvalues --  -20.55398 -20.54785  -1.32692  -1.32076  -0.70101
 Alpha  occ. eigenvalues --   -0.69468  -0.56118  -0.55502  -0.49801  -0.49189
 Alpha virt. eigenvalues --    0.13814   0.15181   0.20219   0.21113   0.54292
 Alpha virt. eigenvalues --    0.54989   0.57358   0.57895   0.66762   0.70747
 Alpha virt. eigenvalues --    0.79079   0.79680   0.80313   0.81161   0.82859

 Mulliken charges:
               1
     1  O   -0.506173
     2  H    0.250682
     3  H    0.255698
     4  O   -0.505867
     5  H    0.248724
     6  H    0.256935
 Sum of Mulliken charges =  -0.00000

 Dipole moment (field-independent basis, Debye):
    X=             -1.6893    Y=             -1.0126    Z=              0.0000  Tot=              1.9696
 Quadrupole moment (field-independent basis, Debye-Ang):
   XX=             -9.3468   YY=              3.6431   ZZ=            -14.7120
   XY=             -3.3847   XZ=              0.0000   YZ=              0.0000

 Normal termination of Gaussian 16 at Fri Aug 26 17:53:08 2022.
