 Gaussian 16, Revision A.03,
 Gaussian 16:  ES64L-G16RevA.03 25-Dec-2016

 ------------------
 #p CCSD(T)/cc-pVTZ
 ------------------

 ------------
 H2O_H2O_1937
 ------------
 Symbolic Z-matrix:
 Charge =  0 Multiplicity = 1

                         Standard orientation:
 ---------------------------------------------------------------------
 Center     Atomic      Atomic             Coordinates (Angstroms)
 Number     Number       Type             X           Y           Z
 ---------------------------------------------------------------------
      1          8           0        0.040417   -1.809296    0.000000
      2          1           0       -0.760240   -2.378905    0.000000
      3          1           0        0.838899   -2.381949    0.000000
      4          8           0        0.040417    1.842598    0.000000
      5          1           0        0.203793    2.811522    0.000000
      6          1           0       -0.929123    1.682913    0.000000
 ---------------------------------------------------------------------

 SCF Done:  E(RHF) =  -152.105713672     A.U. after   10 cycles
 E2 =    -0.5264788801D+00 EUMP2 =    -0.15263219255241D+03
 CCSD(T)
 CCSD(T)= -0.15265941004D+03

 The electronic state is 1-A'.
 Alpha  occ. eigenvalues --  -20.54927 -20.54303  -1.32204  -1.31572  -0.69624
 Alpha  occ. eigenvalues --   -0.68965  -0.55641  -0.54815  -0.49310  -0.48677
 Alpha virt. eigenvalues --    0.13789   0.16079   0.20328   0.21763   0.53252
 Alpha virt. eigenvalues --    0.55403   0.57739   0.58435   0.63547   0.76362
 Alpha virt. eigenvalues --    0.78924   0.79091   0.80653   0.80753   0.84127

 Mulliken charges:
               1
     1  O   -0.493259
     2  H    0.243200
     3  H    0.251186
     4  O   -0.494373
     5  H    0.241077
     6  H    0.252168
 Sum of Mulliken charges =  -0.00000

 Dipole moment (field-independent basis, Debye):
    X=             -1.3543    Y=             -0.6144    Z=              0.0000  Tot=              1.4871
 Quadrupole moment (field-independent basis, Debye-Ang):
   XX=             -8.8548   YY=              1.2965   ZZ=            -14.7117
   XY=             -1.7247   XZ=              0.0000   YZ=              0.0000

 Normal termination of Gaussian 16 at Sat Aug 27 07:39:26 2022.
