 Gaussian 16, Revision A.03,
 Gaussian 16:  ES64L-G16RevA.03 25-Dec-2016

 ------------------
 #p CCSD(T)/cc-pVTZ
 ------------------

 ------------
 H2O_H2O_4457
 ------------
 Symbolic Z-matrix:
 Charge =  0 Multiplicity = 1

                         Standard orientation:
 ---------------------------------------------------------------------
 Center     Atomic      Atomic             Coordinates (Angstroms)
 Number     Number       Type             X           Y           Z
 ---------------------------------------------------------------------
      1          8           0        0.025265   -3.163892    0.000000
      2          1           0       -0.774698   -3.734475    0.000000
      3          1           0        0.824444   -3.735573    0.000000
      4          8           0        0.025265    3.175637    0.000000
      5          1           0        0.490366    4.041193    0.000000
      6          1           0       -0.944345    3.334894    0.000000
 ---------------------------------------------------------------------

 SCF Done:  E(RHF) =  -152.106909978     A.U. after   10 cycles
 E2 =    -0.5259223658D+00 EUMP2 =    -0.15263283234400D+03
 CCSD(T)
 CCSD(T)= -0.15266006310D+03

 The electronic state is 1-A'.
 Alpha  occ. eigenvalues --  -20.55253 -20.55186  -1.32549  -1.32482  -0.69956
 Alpha  occ. eigenvalues --   -0.69887  -0.55974  -0.55906  -0.49657  -0.49590
 Alpha virt. eigenvalues --    0.14379   0.14454   0.20431   0.20503   0.54611
 Alpha virt. eigenvalues --    0.54685   0.57486   0.57554   0.68244   0.68334
 Alpha virt. eigenvalues --    0.79222   0.79288   0.80663   0.80737   0.82591

 Mulliken charges:
               1
     1  O   -0.505931
     2  H    0.252398
     3  H    0.253533
     4  O   -0.505866
     5  H    0.252107
     6  H    0.253759
 Sum of Mulliken charges =  -0.00000

 Dipole moment (field-independent basis, Debye):
    X=             -0.8681    Y=             -0.2050    Z=              0.0000  Tot=              0.8920
 Quadrupole moment (field-independent basis, Debye-Ang):
   XX=             -8.2045   YY=             12.4064   ZZ=            -14.7109
   XY=             -2.0531   XZ=              0.0000   YZ=              0.0000

 Normal termination of Gaussian 16 at Sat Aug 27 07:25:25 2022.
