 Gaussian 16, Revision A.03,
 Gaussian 16:  ES64L-G16RevA.03 25-Dec-2016

 ------------------
 #p CCSD(T)/cc-pVTZ
 ------------------

 ------------
 H2O_H2O_1650
 ------------
 Symbolic Z-matrix:
 Charge =  0 Multiplicity = 1

                         Standard orientation:
 ---------------------------------------------------------------------
 Center     Atomic      Atomic             Coordinates (Angstroms)
 Number     Number       Type             X           Y           Z
 ---------------------------------------------------------------------
      1          8           0        0.000000   -0.000000    1.681129
      2          1           0        0.000000    0.799571    2.252261
      3          1           0       -0.000000   -0.799571    2.252261
      4          8           0        0.000000   -0.000000   -1.681129
      5          1           0       -0.000000   -0.799571   -2.252261
      6          1           0        0.000000    0.799571   -2.252261
 ---------------------------------------------------------------------

 SCF Done:  E(RHF) =  -152.103431297     A.U. after   10 cycles
 E2 =    -0.5268227520D+00 EUMP2 =    -0.15263025404875D+03
 CCSD(T)
 CCSD(T)= -0.15265752123D+03

 The electronic state is 1-AG.
 Alpha  occ. eigenvalues --  -20.54169 -20.54169  -1.31494  -1.31408  -0.68915
 Alpha  occ. eigenvalues --   -0.68845  -0.55352  -0.53985  -0.48647  -0.48432
 Alpha virt. eigenvalues --    0.14292   0.16267   0.20599   0.21533   0.52899
 Alpha virt. eigenvalues --    0.58077   0.58312   0.58489   0.61707   0.75973
 Alpha virt. eigenvalues --    0.78723   0.78937   0.79934   0.81647   0.84816

 Mulliken charges:
               1
     1  O   -0.481333
     2  H    0.240666
     3  H    0.240666
     4  O   -0.481333
     5  H    0.240666
     6  H    0.240666
 Sum of Mulliken charges =  -0.00000

 Dipole moment (field-independent basis, Debye):
    X=             -0.0000    Y=              0.0000    Z=              0.0000  Tot=              0.0000
 Quadrupole moment (field-independent basis, Debye-Ang):
   XX=            -14.7087   YY=             -7.8673   ZZ=              1.1679
   XY=              0.0000   XZ=              0.0000   YZ=             -0.0000

 \MP4DQ=-152.6392455\MP4SDQ=-152.6423631\CCSD=-152.6417508\CCSD(T)=-152
 Normal termination of Gaussian 16 at Sat Aug 27 05:59:40 2022.
