 Gaussian 16, Revision A.03,
 Gaussian 16:  ES64L-G16RevA.03 25-Dec-2016

 ------------------
 #p CCSD(T)/cc-pVTZ
 ------------------

 -----------
 H2O_H2O_318
 -----------
 Symbolic Z-matrix:
 Charge =  0 Multiplicity = 1

                         Standard orientation:
 ---------------------------------------------------------------------
 Center     Atomic      Atomic             Coordinates (Angstroms)
 Number     Number       Type             X           Y           Z
 ---------------------------------------------------------------------
      1          8           0        0.052932   -0.925119    0.000000
      2          1           0       -0.749332   -1.492462    0.000000
      3          1           0        0.849792   -1.500027    0.000000
      4          8           0        0.052932    0.995133    0.000000
      5          1           0       -0.164211    1.953441    0.000000
      6          1           0       -0.783160    0.478938    0.000000
 ---------------------------------------------------------------------

 SCF Done:  E(RHF) =  -152.036756369     A.U. after   11 cycles
 E2 =    -0.5385285411D+00 EUMP2 =    -0.15257528491030D+03
 CCSD(T)
 CCSD(T)= -0.15260167536D+03

 The electronic state is 1-A'.
 Alpha  occ. eigenvalues --  -20.54514 -20.50872  -1.35402  -1.27855  -0.72898
 Alpha  occ. eigenvalues --   -0.69477  -0.54965  -0.51726  -0.47269  -0.44737
 Alpha virt. eigenvalues --    0.13606   0.18775   0.19599   0.24872   0.51443
 Alpha virt. eigenvalues --    0.56199   0.60624   0.64698   0.72559   0.75879
 Alpha virt. eigenvalues --    0.80242   0.81572   0.84022   0.84479   0.88208

 Mulliken charges:
               1
     1  O   -0.392782
     2  H    0.190650
     3  H    0.224532
     4  O   -0.434494
     5  H    0.164759
     6  H    0.247336
 Sum of Mulliken charges =  -0.00000

 Dipole moment (field-independent basis, Debye):
    X=             -1.4958    Y=             -1.5249    Z=              0.0000  Tot=              2.1361
 Quadrupole moment (field-independent basis, Debye-Ang):
   XX=             -9.6551   YY=             -6.7415   ZZ=            -14.6667
   XY=             -1.3445   XZ=              0.0000   YZ=              0.0000

 Normal termination of Gaussian 16 at Fri Aug 26 15:12:39 2022.
