 Gaussian 16, Revision A.03,
 Gaussian 16:  ES64L-G16RevA.03 25-Dec-2016

 ------------------
 #p CCSD(T)/cc-pVTZ
 ------------------

 -----------
 H2O_H2O_414
 -----------
 Symbolic Z-matrix:
 Charge =  0 Multiplicity = 1

                         Standard orientation:
 ---------------------------------------------------------------------
 Center     Atomic      Atomic             Coordinates (Angstroms)
 Number     Number       Type             X           Y           Z
 ---------------------------------------------------------------------
      1          8           0        0.045397   -0.992247    0.000000
      2          1           0       -0.756365   -1.560300    0.000000
      3          1           0        0.842766   -1.566449    0.000000
      4          8           0        0.045397    1.036588    0.000000
      5          1           0        0.082811    2.018477    0.000000
      6          1           0       -0.895557    0.753544    0.000000
 ---------------------------------------------------------------------

 SCF Done:  E(RHF) =  -152.061654423     A.U. after   11 cycles
 E2 =    -0.5348301786D+00 EUMP2 =    -0.15259648460183D+03
 CCSD(T)
 CCSD(T)= -0.15262331668D+03

 The electronic state is 1-A'.
 Alpha  occ. eigenvalues --  -20.53587 -20.51875  -1.33214  -1.28715  -0.70407
 Alpha  occ. eigenvalues --   -0.68071  -0.57579  -0.50174  -0.47199  -0.45451
 Alpha virt. eigenvalues --    0.14050   0.18198   0.20005   0.23855   0.53010
 Alpha virt. eigenvalues --    0.57335   0.58686   0.63264   0.71859   0.76074
 Alpha virt. eigenvalues --    0.80031   0.82322   0.83129   0.84937   0.88202

 Mulliken charges:
               1
     1  O   -0.433388
     2  H    0.207239
     3  H    0.228469
     4  O   -0.417245
     5  H    0.175408
     6  H    0.239517
 Sum of Mulliken charges =   0.00000

 Dipole moment (field-independent basis, Debye):
    X=             -1.3179    Y=             -0.9084    Z=              0.0000  Tot=              1.6006
 Quadrupole moment (field-independent basis, Debye-Ang):
   XX=             -9.2614   YY=             -5.7247   ZZ=            -14.7132
   XY=             -0.9130   XZ=              0.0000   YZ=              0.0000

 Normal termination of Gaussian 16 at Fri Aug 26 16:14:33 2022.
