 Gaussian 16, Revision A.03,
 Gaussian 16:  ES64L-G16RevA.03 25-Dec-2016

 ------------------
 #p CCSD(T)/cc-pVTZ
 ------------------

 ------------
 H2O_H2O_2829
 ------------
 Symbolic Z-matrix:
 Charge =  0 Multiplicity = 1

                         Standard orientation:
 ---------------------------------------------------------------------
 Center     Atomic      Atomic             Coordinates (Angstroms)
 Number     Number       Type             X           Y           Z
 ---------------------------------------------------------------------
      1          8           0        0.014783   -2.303932    0.000000
      2          1           0       -0.785103   -2.874623    0.000000
      3          1           0        0.814039   -2.875505    0.000000
      4          8           0        0.014783    2.307808    0.000000
      5          1           0        0.639709    3.066078    0.000000
      6          1           0       -0.905174    2.653042    0.000000
 ---------------------------------------------------------------------

 SCF Done:  E(RHF) =  -152.105897841     A.U. after   10 cycles
 E2 =    -0.5260793869D+00 EUMP2 =    -0.15263197722751D+03
 CCSD(T)
 CCSD(T)= -0.15265922435D+03

 The electronic state is 1-A'.
 Alpha  occ. eigenvalues --  -20.54841 -20.54799  -1.32132  -1.32089  -0.69544
 Alpha  occ. eigenvalues --   -0.69499  -0.55528  -0.55436  -0.49234  -0.49190
 Alpha virt. eigenvalues --    0.14343   0.15100   0.20600   0.20855   0.54777
 Alpha virt. eigenvalues --    0.55304   0.57776   0.57903   0.66156   0.71382
 Alpha virt. eigenvalues --    0.79589   0.79734   0.81066   0.81177   0.82409

 Mulliken charges:
               1
     1  O   -0.499917
     2  H    0.249156
     3  H    0.250768
     4  O   -0.499811
     5  H    0.248884
     6  H    0.250919
 Sum of Mulliken charges =  -0.00000

 Dipole moment (field-independent basis, Debye):
    X=             -0.5036    Y=             -0.0688    Z=              0.0000  Tot=              0.5083
 Quadrupole moment (field-independent basis, Debye-Ang):
   XX=             -7.9568   YY=              6.1796   ZZ=            -14.7097
   XY=             -0.7322   XZ=              0.0000   YZ=              0.0000

 Normal termination of Gaussian 16 at Fri Aug 26 16:33:56 2022.
