 Gaussian 16, Revision A.03,
 Gaussian 16:  ES64L-G16RevA.03 25-Dec-2016

 ------------------
 #p CCSD(T)/cc-pVTZ
 ------------------

 ------------
 H2O_H2O_1529
 ------------
 Symbolic Z-matrix:
 Charge =  0 Multiplicity = 1

                         Standard orientation:
 ---------------------------------------------------------------------
 Center     Atomic      Atomic             Coordinates (Angstroms)
 Number     Number       Type             X           Y           Z
 ---------------------------------------------------------------------
      1          8           0        0.014784   -1.612548    0.000000
      2          1           0       -0.785237   -2.183050    0.000000
      3          1           0        0.813904   -2.184310    0.000000
      4          8           0        0.014784    1.616417    0.000000
      5          1           0        0.639888    2.374539    0.000000
      6          1           0       -0.905091    1.961869    0.000000
 ---------------------------------------------------------------------

 SCF Done:  E(RHF) =  -152.103007588     A.U. after   10 cycles
 E2 =    -0.5269968362D+00 EUMP2 =    -0.15263000442421D+03
 CCSD(T)
 CCSD(T)= -0.15265727594D+03

 The electronic state is 1-A'.
 Alpha  occ. eigenvalues --  -20.54134 -20.54049  -1.31454  -1.31300  -0.68875
 Alpha  occ. eigenvalues --   -0.68737  -0.55439  -0.53718  -0.48616  -0.48312
 Alpha virt. eigenvalues --    0.14279   0.16432   0.20558   0.21691   0.52493
 Alpha virt. eigenvalues --    0.58172   0.58313   0.58675   0.63324   0.76380
 Alpha virt. eigenvalues --    0.78363   0.78468   0.79649   0.82014   0.85630

 Mulliken charges:
               1
     1  O   -0.478828
     2  H    0.237449
     3  H    0.241538
     4  O   -0.478364
     5  H    0.237052
     6  H    0.241155
 Sum of Mulliken charges =  -0.00000

 Dipole moment (field-independent basis, Debye):
    X=             -0.4889    Y=             -0.0726    Z=              0.0000  Tot=              0.4943
 Quadrupole moment (field-independent basis, Debye-Ang):
   XX=             -8.0111   YY=              0.5051   ZZ=            -14.7093
   XY=             -0.3929   XZ=              0.0000   YZ=              0.0000

 Normal termination of Gaussian 16 at Sat Aug 27 05:18:04 2022.
