 Gaussian 16, Revision A.03,
 Gaussian 16:  ES64L-G16RevA.03 25-Dec-2016

 ------------------
 #p CCSD(T)/cc-pVTZ
 ------------------

 ------------
 H2O_H2O_2200
 ------------
 Symbolic Z-matrix:
 Charge =  0 Multiplicity = 1

                         Standard orientation:
 ---------------------------------------------------------------------
 Center     Atomic      Atomic             Coordinates (Angstroms)
 Number     Number       Type             X           Y           Z
 ---------------------------------------------------------------------
      1          8           0        0.000000   -0.000000    1.973639
      2          1           0        0.000000    0.799571    2.544771
      3          1           0       -0.000000   -0.799571    2.544771
      4          8           0        0.000000   -0.000000   -1.973639
      5          1           0       -0.000000   -0.799571   -2.544771
      6          1           0        0.000000    0.799571   -2.544771
 ---------------------------------------------------------------------

 SCF Done:  E(RHF) =  -152.105005154     A.U. after   10 cycles
 E2 =    -0.5263227348D+00 EUMP2 =    -0.15263132788870D+03
 CCSD(T)
 CCSD(T)= -0.15265857807D+03

 The electronic state is 1-AG.
 Alpha  occ. eigenvalues --  -20.54535 -20.54535  -1.31826  -1.31809  -0.69244
 Alpha  occ. eigenvalues --   -0.69227  -0.55336  -0.54919  -0.48941  -0.48886
 Alpha virt. eigenvalues --    0.14222   0.15656   0.20638   0.21134   0.54324
 Alpha virt. eigenvalues --    0.56356   0.57907   0.58183   0.61989   0.74846
 Alpha virt. eigenvalues --    0.79511   0.80376   0.80786   0.81145   0.82079

 Mulliken charges:
               1
     1  O   -0.493246
     2  H    0.246623
     3  H    0.246623
     4  O   -0.493246
     5  H    0.246623
     6  H    0.246623
 Sum of Mulliken charges =  -0.00000

 Dipole moment (field-independent basis, Debye):
    X=             -0.0000    Y=              0.0000    Z=             -0.0000  Tot=              0.0000
 Quadrupole moment (field-independent basis, Debye-Ang):
   XX=            -14.7093   YY=             -7.8380   ZZ=              3.6377
   XY=              0.0000   XZ=              0.0000   YZ=             -0.0000

 6\MP4DQ=-152.6404\MP4SDQ=-152.6434856\CCSD=-152.6428859\CCSD(T)=-152.6
 Normal termination of Gaussian 16 at Sat Aug 27 09:10:37 2022.
