 Gaussian 16, Revision A.03,
 Gaussian 16:  ES64L-G16RevA.03 25-Dec-2016

 ------------------
 #p CCSD(T)/cc-pVTZ
 ------------------

 -----------
 H2O_H2O_972
 -----------
 Symbolic Z-matrix:
 Charge =  0 Multiplicity = 1

                         Standard orientation:
 ---------------------------------------------------------------------
 Center     Atomic      Atomic             Coordinates (Angstroms)
 Number     Number       Type             X           Y           Z
 ---------------------------------------------------------------------
      1          8           0        0.056810   -1.255131    0.000000
      2          1           0       -0.744890   -1.823272    0.000000
      3          1           0        0.854241   -1.829247    0.000000
      4          8           0        0.056810    1.354024    0.000000
      5          1           0       -0.401827    2.223023    0.000000
      6          1           0       -0.616480    0.638352    0.000000
 ---------------------------------------------------------------------

 SCF Done:  E(RHF) =  -152.104208748     A.U. after   10 cycles
 E2 =    -0.5292877589D+00 EUMP2 =    -0.15263349650680D+03
 CCSD(T)
 CCSD(T)= -0.15266048629D+03

 The electronic state is 1-A'.
 Alpha  occ. eigenvalues --  -20.56541 -20.52333  -1.34162  -1.29736  -0.71527
 Alpha  occ. eigenvalues --   -0.68092  -0.56602  -0.53283  -0.51216  -0.46822
 Alpha virt. eigenvalues --    0.13082   0.17940   0.19493   0.25931   0.51233
 Alpha virt. eigenvalues --    0.56296   0.59140   0.60411   0.71052   0.73840
 Alpha virt. eigenvalues --    0.75287   0.81135   0.82676   0.83860   0.85907

 Mulliken charges:
               1
     1  O   -0.472405
     2  H    0.237610
     3  H    0.255001
     4  O   -0.510008
     5  H    0.224548
     6  H    0.265254
 Sum of Mulliken charges =  -0.00000

 Dipole moment (field-independent basis, Debye):
    X=             -1.8000    Y=             -2.0515    Z=              0.0000  Tot=              2.7292
 Quadrupole moment (field-independent basis, Debye-Ang):
   XX=             -9.8322   YY=             -4.6344   ZZ=            -14.7228
   XY=             -2.6262   XZ=              0.0000   YZ=              0.0000

 Normal termination of Gaussian 16 at Fri Aug 26 21:38:30 2022.
