 Gaussian 16, Revision A.03,
 Gaussian 16:  ES64L-G16RevA.03 25-Dec-2016

 ------------------
 #p CCSD(T)/cc-pVTZ
 ------------------

 ------------
 H2O_H2O_2011
 ------------
 Symbolic Z-matrix:
 Charge =  0 Multiplicity = 1

                         Standard orientation:
 ---------------------------------------------------------------------
 Center     Atomic      Atomic             Coordinates (Angstroms)
 Number     Number       Type             X           Y           Z
 ---------------------------------------------------------------------
      1          8           0        0.037682   -1.851947    0.000000
      2          1           0       -0.762880   -2.421689    0.000000
      3          1           0        0.836260   -2.424467    0.000000
      4          8           0        0.037682    1.880162    0.000000
      5          1           0        0.263919    2.836365    0.000000
      6          1           0       -0.940210    1.784067    0.000000
 ---------------------------------------------------------------------

 SCF Done:  E(RHF) =  -152.105630318     A.U. after   10 cycles
 E2 =    -0.5264226973D+00 EUMP2 =    -0.15263205301547D+03
 CCSD(T)
 CCSD(T)= -0.15265927651D+03

 The electronic state is 1-A'.
 Alpha  occ. eigenvalues --  -20.54869 -20.54366  -1.32147  -1.31638  -0.69566
 Alpha  occ. eigenvalues --   -0.69035  -0.55582  -0.54879  -0.49252  -0.48741
 Alpha virt. eigenvalues --    0.13844   0.15976   0.20377   0.21601   0.53305
 Alpha virt. eigenvalues --    0.55525   0.57781   0.58346   0.63337   0.76011
 Alpha virt. eigenvalues --    0.79083   0.79452   0.80610   0.80871   0.83567

 Mulliken charges:
               1
     1  O   -0.493973
     2  H    0.243847
     3  H    0.250929
     4  O   -0.494563
     5  H    0.242075
     6  H    0.251684
 Sum of Mulliken charges =  -0.00000

 Dipole moment (field-independent basis, Debye):
    X=             -1.2655    Y=             -0.5183    Z=              0.0000  Tot=              1.3675
 Quadrupole moment (field-independent basis, Debye-Ang):
   XX=             -8.7208   YY=              1.7831   ZZ=            -14.7112
   XY=             -1.5985   XZ=              0.0000   YZ=              0.0000

 Normal termination of Gaussian 16 at Sat Aug 27 08:05:38 2022.
