 Gaussian 16, Revision A.03,
 Gaussian 16:  ES64L-G16RevA.03 25-Dec-2016

 ------------------
 #p CCSD(T)/cc-pVTZ
 ------------------

 ------------
 H2O_H2O_1720
 ------------
 Symbolic Z-matrix:
 Charge =  0 Multiplicity = 1

                         Standard orientation:
 ---------------------------------------------------------------------
 Center     Atomic      Atomic             Coordinates (Angstroms)
 Number     Number       Type             X           Y           Z
 ---------------------------------------------------------------------
      1          8           0        0.055285   -1.661906    0.000000
      2          1           0       -0.745875   -2.230807    0.000000
      3          1           0        0.853261   -2.235264    0.000000
      4          8           0        0.055285    1.746260    0.000000
      5          1           0       -0.286877    2.667364    0.000000
      6          1           0       -0.705068    1.123871    0.000000
 ---------------------------------------------------------------------

 SCF Done:  E(RHF) =  -152.108053276     A.U. after   10 cycles
 E2 =    -0.5266671108D+00 EUMP2 =    -0.15263472038720D+03
 CCSD(T)
 CCSD(T)= -0.15266186725D+03

 The electronic state is 1-A'.
 Alpha  occ. eigenvalues --  -20.55886 -20.53889  -1.33159  -1.31173  -0.70571
 Alpha  occ. eigenvalues --   -0.68550  -0.56579  -0.54616  -0.50276  -0.48300
 Alpha virt. eigenvalues --    0.13238   0.16623   0.19852   0.23600   0.53694
 Alpha virt. eigenvalues --    0.54997   0.56940   0.58319   0.65969   0.75705
 Alpha virt. eigenvalues --    0.77486   0.77577   0.78997   0.81135   0.84570

 Mulliken charges:
               1
     1  O   -0.495117
     2  H    0.244693
     3  H    0.256455
     4  O   -0.506870
     5  H    0.240205
     6  H    0.260634
 Sum of Mulliken charges =  -0.00000

 Dipole moment (field-independent basis, Debye):
    X=             -1.8380    Y=             -1.5975    Z=              0.0000  Tot=              2.4352
 Quadrupole moment (field-independent basis, Debye-Ang):
   XX=             -9.7287   YY=             -1.7231   ZZ=            -14.7191
   XY=             -3.0229   XZ=              0.0000   YZ=              0.0000

 Normal termination of Gaussian 16 at Sat Aug 27 06:24:14 2022.
