 Gaussian 16, Revision A.03,
 Gaussian 16:  ES64L-G16RevA.03 25-Dec-2016

 ------------------
 #p CCSD(T)/cc-pVTZ
 ------------------

 ----------
 H2O_H2O_87
 ----------
 Symbolic Z-matrix:
 Charge =  0 Multiplicity = 1

                         Standard orientation:
 ---------------------------------------------------------------------
 Center     Atomic      Atomic             Coordinates (Angstroms)
 Number     Number       Type             X           Y           Z
 ---------------------------------------------------------------------
      1          8           0        0.040454   -0.825493    0.000000
      2          1           0       -0.761468   -1.393319    0.000000
      3          1           0        0.837660   -1.399921    0.000000
      4          8           0        0.040454    0.858615    0.000000
      5          1           0        0.205985    1.827174    0.000000
      6          1           0       -0.929439    0.701087    0.000000
 ---------------------------------------------------------------------

 SCF Done:  E(RHF) =  -151.960516764     A.U. after   12 cycles
 E2 =    -0.5467145360D+00 EUMP2 =    -0.15250723129957D+03
 CCSD(T)
 CCSD(T)= -0.15253254037D+03

 The electronic state is 1-A'.
 Alpha  occ. eigenvalues --  -20.52542 -20.51389  -1.36873  -1.26921  -0.73079
 Alpha  occ. eigenvalues --   -0.69369  -0.59943  -0.52772  -0.43551  -0.38033
 Alpha virt. eigenvalues --    0.14067   0.19018   0.19776   0.23748   0.53445
 Alpha virt. eigenvalues --    0.56099   0.58602   0.65486   0.72945   0.77620
 Alpha virt. eigenvalues --    0.80486   0.82224   0.82478   0.84276   0.88996

 Mulliken charges:
               1
     1  O   -0.357814
     2  H    0.166523
     3  H    0.195637
     4  O   -0.347231
     5  H    0.112858
     6  H    0.230028
 Sum of Mulliken charges =  -0.00000

 Dipole moment (field-independent basis, Debye):
    X=             -1.0912    Y=             -0.7776    Z=              0.0000  Tot=              1.3399
 Quadrupole moment (field-independent basis, Debye-Ang):
   XX=             -9.1470   YY=             -8.3904   ZZ=            -14.6742
   XY=             -0.5746   XZ=              0.0000   YZ=              0.0000

 02876\MP4DQ=-152.5115751\MP4SDQ=-152.515639\CCSD=-152.5144923\CCSD(T)=
 Normal termination of Gaussian 16 at Fri Aug 26 12:38:10 2022.
