 Gaussian 16, Revision A.03,
 Gaussian 16:  ES64L-G16RevA.03 25-Dec-2016

 ------------------
 #p CCSD(T)/cc-pVTZ
 ------------------

 ------------
 H2O_H2O_2638
 ------------
 Symbolic Z-matrix:
 Charge =  0 Multiplicity = 1

                         Standard orientation:
 ---------------------------------------------------------------------
 Center     Atomic      Atomic             Coordinates (Angstroms)
 Number     Number       Type             X           Y           Z
 ---------------------------------------------------------------------
      1          8           0        0.042973   -2.178614    0.000000
      2          1           0       -0.757558   -2.748401    0.000000
      3          1           0        0.841582   -2.751090    0.000000
      4          8           0        0.042973    2.217381    0.000000
      5          1           0        0.142411    3.194938    0.000000
      6          1           0       -0.913998    1.994414    0.000000
 ---------------------------------------------------------------------

 SCF Done:  E(RHF) =  -152.106503278     A.U. after   10 cycles
 E2 =    -0.5260837158D+00 EUMP2 =    -0.15263258699392D+03
 CCSD(T)
 CCSD(T)= -0.15265981481D+03

 The electronic state is 1-A'.
 Alpha  occ. eigenvalues --  -20.55165 -20.54678  -1.32455  -1.31964  -0.69866
 Alpha  occ. eigenvalues --   -0.69359  -0.55855  -0.55361  -0.49560  -0.49073
 Alpha virt. eigenvalues --    0.13864   0.15393   0.20328   0.21195   0.54213
 Alpha virt. eigenvalues --    0.55133   0.57551   0.57990   0.65724   0.72594
 Alpha virt. eigenvalues --    0.79285   0.79827   0.80483   0.81574   0.82945

 Mulliken charges:
               1
     1  O   -0.502761
     2  H    0.248843
     3  H    0.254187
     4  O   -0.502498
     5  H    0.247192
     6  H    0.255038
 Sum of Mulliken charges =  -0.00000

 Dipole moment (field-independent basis, Debye):
    X=             -1.4607    Y=             -0.6942    Z=              0.0000  Tot=              1.6173
 Quadrupole moment (field-independent basis, Debye-Ang):
   XX=             -8.9720   YY=              3.6268   ZZ=            -14.7113
   XY=             -2.4433   XZ=              0.0000   YZ=              0.0000

 Normal termination of Gaussian 16 at Fri Aug 26 14:36:33 2022.
