 Gaussian 16, Revision A.03,
 Gaussian 16:  ES64L-G16RevA.03 25-Dec-2016

 ------------------
 #p CCSD(T)/cc-pVTZ
 ------------------

 ------------
 H2O_H2O_3457
 ------------
 Symbolic Z-matrix:
 Charge =  0 Multiplicity = 1

                         Standard orientation:
 ---------------------------------------------------------------------
 Center     Atomic      Atomic             Coordinates (Angstroms)
 Number     Number       Type             X           Y           Z
 ---------------------------------------------------------------------
      1          8           0        0.025265   -2.632059    0.000000
      2          1           0       -0.774776   -3.202532    0.000000
      3          1           0        0.824365   -3.203850    0.000000
      4          8           0        0.025265    2.643798    0.000000
      5          1           0        0.490487    3.509288    0.000000
      6          1           0       -0.944323    2.803188    0.000000
 ---------------------------------------------------------------------

 SCF Done:  E(RHF) =  -152.106496576     A.U. after   10 cycles
 E2 =    -0.5259817094D+00 EUMP2 =    -0.15263247828513D+03
 CCSD(T)
 CCSD(T)= -0.15265971644D+03

 The electronic state is 1-A'.
 Alpha  occ. eigenvalues --  -20.55082 -20.54984  -1.32376  -1.32277  -0.69785
 Alpha  occ. eigenvalues --   -0.69683  -0.55780  -0.55682  -0.49481  -0.49383
 Alpha virt. eigenvalues --    0.14404   0.14727   0.20516   0.20680   0.54754
 Alpha virt. eigenvalues --    0.54921   0.57619   0.57731   0.67938   0.69137
 Alpha virt. eigenvalues --    0.79396   0.79493   0.80835   0.80965   0.82757

 Mulliken charges:
               1
     1  O   -0.503516
     2  H    0.250805
     3  H    0.252712
     4  O   -0.503361
     5  H    0.250362
     6  H    0.252996
 Sum of Mulliken charges =  -0.00000

 Dipole moment (field-independent basis, Debye):
    X=             -0.8648    Y=             -0.2064    Z=              0.0000  Tot=              0.8891
 Quadrupole moment (field-independent basis, Debye-Ang):
   XX=             -8.2106   YY=              8.3539   ZZ=            -14.7103
   XY=             -1.5966   XZ=              0.0000   YZ=              0.0000

 Normal termination of Gaussian 16 at Fri Aug 26 22:30:18 2022.
