 Gaussian 16, Revision A.03,
 Gaussian 16:  ES64L-G16RevA.03 25-Dec-2016

 ------------------
 #p CCSD(T)/cc-pVTZ
 ------------------

 ------------
 H2O_H2O_4946
 ------------
 Symbolic Z-matrix:
 Charge =  0 Multiplicity = 1

                         Standard orientation:
 ---------------------------------------------------------------------
 Center     Atomic      Atomic             Coordinates (Angstroms)
 Number     Number       Type             X           Y           Z
 ---------------------------------------------------------------------
      1          8           0        0.056081   -3.373047    0.000000
      2          1           0       -0.744295   -3.943051    0.000000
      3          1           0        0.854845   -3.945306    0.000000
      4          8           0        0.056081    3.464831    0.000000
      5          1           0       -0.346825    4.361030    0.000000
      6          1           0       -0.661015    2.793057    0.000000
 ---------------------------------------------------------------------

 SCF Done:  E(RHF) =  -152.107523779     A.U. after   10 cycles
 E2 =    -0.5258637633D+00 EUMP2 =    -0.15263338754207D+03
 CCSD(T)
 CCSD(T)= -0.15266060552D+03

 The electronic state is 1-A'.
 Alpha  occ. eigenvalues --  -20.55670 -20.55222  -1.32969  -1.32521  -0.70375
 Alpha  occ. eigenvalues --   -0.69922  -0.56421  -0.55970  -0.50082  -0.49634
 Alpha virt. eigenvalues --    0.14016   0.14464   0.20097   0.20570   0.54185
 Alpha virt. eigenvalues --    0.54649   0.57114   0.57562   0.67757   0.68221
 Alpha virt. eigenvalues --    0.78798   0.79239   0.80227   0.80700   0.82151

 Mulliken charges:
               1
     1  O   -0.509567
     2  H    0.253835
     3  H    0.255732
     4  O   -0.509331
     5  H    0.252749
     6  H    0.256582
 Sum of Mulliken charges =  -0.00000

 Dipole moment (field-independent basis, Debye):
    X=             -1.9295    Y=             -1.5998    Z=              0.0000  Tot=              2.5065
 Quadrupole moment (field-independent basis, Debye-Ang):
   XX=             -9.7847   YY=              6.1778   ZZ=            -14.7123
   XY=             -6.4511   XZ=              0.0000   YZ=              0.0000

 Normal termination of Gaussian 16 at Sat Aug 27 10:16:21 2022.
