 Gaussian 16, Revision A.03,
 Gaussian 16:  ES64L-G16RevA.03 25-Dec-2016

 ------------------
 #p CCSD(T)/cc-pVTZ
 ------------------

 ------------
 H2O_H2O_4339
 ------------
 Symbolic Z-matrix:
 Charge =  0 Multiplicity = 1

                         Standard orientation:
 ---------------------------------------------------------------------
 Center     Atomic      Atomic             Coordinates (Angstroms)
 Number     Number       Type             X           Y           Z
 ---------------------------------------------------------------------
      1          8           0        0.045339   -3.079582    0.000000
      2          1           0       -0.754950   -3.649708    0.000000
      3          1           0        0.844191   -3.651719    0.000000
      4          8           0        0.045339    3.124158    0.000000
      5          1           0        0.080213    4.106141    0.000000
      6          1           0       -0.894879    2.838681    0.000000
 ---------------------------------------------------------------------

 SCF Done:  E(RHF) =  -152.107144896     A.U. after   10 cycles
 E2 =    -0.5259046422D+00 EUMP2 =    -0.15263304953844D+03
 CCSD(T)
 CCSD(T)= -0.15266027510D+03

 The electronic state is 1-A'.
 Alpha  occ. eigenvalues --  -20.55419 -20.55150  -1.32716  -1.32446  -0.70123
 Alpha  occ. eigenvalues --   -0.69848  -0.56151  -0.55882  -0.49826  -0.49557
 Alpha virt. eigenvalues --    0.14227   0.14512   0.20295   0.20582   0.54441
 Alpha virt. eigenvalues --    0.54729   0.57337   0.57607   0.68039   0.68352
 Alpha virt. eigenvalues --    0.79054   0.79318   0.80490   0.80779   0.82419

 Mulliken charges:
               1
     1  O   -0.507334
     2  H    0.252592
     3  H    0.254742
     4  O   -0.507135
     5  H    0.251803
     6  H    0.255332
 Sum of Mulliken charges =  -0.00000

 Dipole moment (field-independent basis, Debye):
    X=             -1.5577    Y=             -0.7790    Z=              0.0000  Tot=              1.7416
 Quadrupole moment (field-independent basis, Debye-Ang):
   XX=             -9.0968   YY=              9.1728   ZZ=            -14.7114
   XY=             -4.0492   XZ=              0.0000   YZ=              0.0000

 Normal termination of Gaussian 16 at Sat Aug 27 06:45:32 2022.
