 Gaussian 16, Revision A.03,
 Gaussian 16:  ES64L-G16RevA.03 25-Dec-2016

 ------------------
 #p CCSD(T)/cc-pVTZ
 ------------------

 ------------
 H2O_H2O_3156
 ------------
 Symbolic Z-matrix:
 Charge =  0 Multiplicity = 1

                         Standard orientation:
 ---------------------------------------------------------------------
 Center     Atomic      Atomic             Coordinates (Angstroms)
 Number     Number       Type             X           Y           Z
 ---------------------------------------------------------------------
      1          8           0        0.021860   -2.474179    0.000000
      2          1           0       -0.778145   -3.044704    0.000000
      3          1           0        0.820997   -3.045918    0.000000
      4          8           0        0.021860    2.482841    0.000000
      5          1           0        0.542637    3.316085    0.000000
      6          1           0       -0.935242    2.705242    0.000000
 ---------------------------------------------------------------------

 SCF Done:  E(RHF) =  -152.106256441     A.U. after   10 cycles
 E2 =    -0.5260181467D+00 EUMP2 =    -0.15263227458727D+03
 CCSD(T)
 CCSD(T)= -0.15265951675D+03

 The electronic state is 1-A'.
 Alpha  occ. eigenvalues --  -20.54984 -20.54902  -1.32277  -1.32194  -0.69687
 Alpha  occ. eigenvalues --   -0.69602  -0.55671  -0.55584  -0.49380  -0.49298
 Alpha virt. eigenvalues --    0.14382   0.14883   0.20553   0.20758   0.54788
 Alpha virt. eigenvalues --    0.55058   0.57688   0.57803   0.67389   0.69932
 Alpha virt. eigenvalues --    0.79490   0.79582   0.80917   0.81077   0.82699

 Mulliken charges:
               1
     1  O   -0.502100
     2  H    0.250072
     3  H    0.252032
     4  O   -0.501939
     5  H    0.249662
     6  H    0.252272
 Sum of Mulliken charges =  -0.00000

 Dipole moment (field-independent basis, Debye):
    X=             -0.7468    Y=             -0.1529    Z=              0.0000  Tot=              0.7622
 Quadrupole moment (field-independent basis, Debye-Ang):
   XX=             -8.1134   YY=              7.3002   ZZ=            -14.7101
   XY=             -1.2425   XZ=              0.0000   YZ=              0.0000

 Normal termination of Gaussian 16 at Fri Aug 26 19:53:32 2022.
