 Gaussian 16, Revision A.03,
 Gaussian 16:  ES64L-G16RevA.03 25-Dec-2016

 ------------------
 #p CCSD(T)/cc-pVTZ
 ------------------

 ------------
 H2O_H2O_1468
 ------------
 Symbolic Z-matrix:
 Charge =  0 Multiplicity = 1

                         Standard orientation:
 ---------------------------------------------------------------------
 Center     Atomic      Atomic             Coordinates (Angstroms)
 Number     Number       Type             X           Y           Z
 ---------------------------------------------------------------------
      1          8           0        0.052867   -1.536629    0.000000
      2          1           0       -0.748351   -2.105448    0.000000
      3          1           0        0.850784   -2.110069    0.000000
      4          8           0        0.052867    1.606837    0.000000
      5          1           0       -0.166039    2.564745    0.000000
      6          1           0       -0.782272    1.089104    0.000000
 ---------------------------------------------------------------------

 SCF Done:  E(RHF) =  -152.106786786     A.U. after   10 cycles
 E2 =    -0.5270847145D+00 EUMP2 =    -0.15263387150093D+03
 CCSD(T)
 CCSD(T)= -0.15266103186D+03

 The electronic state is 1-A'.
 Alpha  occ. eigenvalues --  -20.55585 -20.53695  -1.32879  -1.30962  -0.70297
 Alpha  occ. eigenvalues --   -0.68369  -0.56277  -0.54305  -0.49995  -0.48078
 Alpha virt. eigenvalues --    0.13469   0.16836   0.19932   0.23460   0.54080
 Alpha virt. eigenvalues --    0.55298   0.57196   0.58303   0.66671   0.75923
 Alpha virt. eigenvalues --    0.76832   0.76999   0.79417   0.81823   0.84792

 Mulliken charges:
               1
     1  O   -0.488087
     2  H    0.240344
     3  H    0.254153
     4  O   -0.497659
     5  H    0.234782
     6  H    0.256467
 Sum of Mulliken charges =   0.00000

 Dipole moment (field-independent basis, Debye):
    X=             -1.7361    Y=             -1.3461    Z=              0.0000  Tot=              2.1969
 Quadrupole moment (field-independent basis, Debye-Ang):
   XX=             -9.5787   YY=             -1.8529   ZZ=            -14.7195
   XY=             -2.4252   XZ=              0.0000   YZ=              0.0000

 Normal termination of Gaussian 16 at Sat Aug 27 04:55:59 2022.
