 Gaussian 16, Revision A.03,
 Gaussian 16:  ES64L-G16RevA.03 25-Dec-2016

 ------------------
 #p CCSD(T)/cc-pVTZ
 ------------------

 ------------
 H2O_H2O_3402
 ------------
 Symbolic Z-matrix:
 Charge =  0 Multiplicity = 1

                         Standard orientation:
 ---------------------------------------------------------------------
 Center     Atomic      Atomic             Coordinates (Angstroms)
 Number     Number       Type             X           Y           Z
 ---------------------------------------------------------------------
      1          8           0        0.007455   -2.611314    0.000000
      2          1           0       -0.792256   -3.182249    0.000000
      3          1           0        0.806886   -3.182642    0.000000
      4          8           0        0.007455    2.612287    0.000000
      5          1           0        0.725803    3.282722    0.000000
      6          1           0       -0.859711    3.074381    0.000000
 ---------------------------------------------------------------------

 SCF Done:  E(RHF) =  -152.106322470     A.U. after   10 cycles
 E2 =    -0.5259975648D+00 EUMP2 =    -0.15263232003492D+03
 CCSD(T)
 CCSD(T)= -0.15265956186D+03

 The electronic state is 1-A'.
 Alpha  occ. eigenvalues --  -20.54986 -20.54978  -1.32280  -1.32272  -0.69689
 Alpha  occ. eigenvalues --   -0.69680  -0.55679  -0.55663  -0.49384  -0.49375
 Alpha virt. eigenvalues --    0.14467   0.14740   0.20577   0.20670   0.54829
 Alpha virt. eigenvalues --    0.54947   0.57691   0.57735   0.67931   0.69277
 Alpha virt. eigenvalues --    0.79487   0.79507   0.80918   0.80984   0.82773

 Mulliken charges:
               1
     1  O   -0.502478
     2  H    0.250951
     3  H    0.251528
     4  O   -0.502463
     5  H    0.250852
     6  H    0.251611
 Sum of Mulliken charges =   0.00000

 Dipole moment (field-independent basis, Debye):
    X=             -0.2551    Y=             -0.0171    Z=              0.0000  Tot=              0.2556
 Quadrupole moment (field-independent basis, Debye-Ang):
   XX=             -7.8465   YY=              8.7843   ZZ=            -14.7100
   XY=             -0.4393   XZ=              0.0000   YZ=              0.0000

 0066\MP4DQ=-152.6414418\MP4SDQ=-152.6445067\CCSD=-152.6439166\CCSD(T)=
 Normal termination of Gaussian 16 at Fri Aug 26 22:01:33 2022.
