 Gaussian 16, Revision A.03,
 Gaussian 16:  ES64L-G16RevA.03 25-Dec-2016

 ------------------
 #p CCSD(T)/cc-pVTZ
 ------------------

 ------------
 H2O_H2O_1263
 ------------
 Symbolic Z-matrix:
 Charge =  0 Multiplicity = 1

                         Standard orientation:
 ---------------------------------------------------------------------
 Center     Atomic      Atomic             Coordinates (Angstroms)
 Number     Number       Type             X           Y           Z
 ---------------------------------------------------------------------
      1          8           0        0.042989   -1.447377    0.000000
      2          1           0       -0.758019   -2.016492    0.000000
      3          1           0        0.841118   -2.020522    0.000000
      4          8           0        0.042989    1.486072    0.000000
      5          1           0        0.143247    2.463545    0.000000
      6          1           0       -0.914168    1.263907    0.000000
 ---------------------------------------------------------------------

 SCF Done:  E(RHF) =  -152.103511338     A.U. after   10 cycles
 E2 =    -0.5275398130D+00 EUMP2 =    -0.15263105115049D+03
 CCSD(T)
 CCSD(T)= -0.15265827490D+03

 The electronic state is 1-A'.
 Alpha  occ. eigenvalues --  -20.54710 -20.53644  -1.32049  -1.30891  -0.69474
 Alpha  occ. eigenvalues --   -0.68323  -0.55893  -0.53527  -0.49185  -0.47948
 Alpha virt. eigenvalues --    0.13920   0.16869   0.20226   0.22723   0.53627
 Alpha virt. eigenvalues --    0.57553   0.57838   0.58552   0.67332   0.76065
 Alpha virt. eigenvalues --    0.76973   0.77123   0.80525   0.82621   0.85441

 Mulliken charges:
               1
     1  O   -0.479463
     2  H    0.234449
     3  H    0.247840
     4  O   -0.477579
     5  H    0.227673
     6  H    0.247080
 Sum of Mulliken charges =   0.00000

 Dipole moment (field-independent basis, Debye):
    X=             -1.3947    Y=             -0.7411    Z=              0.0000  Tot=              1.5794
 Quadrupole moment (field-independent basis, Debye-Ang):
   XX=             -9.0254   YY=             -1.5305   ZZ=            -14.7166
   XY=             -1.3994   XZ=              0.0000   YZ=              0.0000

 Normal termination of Gaussian 16 at Sat Aug 27 03:27:55 2022.
