 Gaussian 16, Revision A.03,
 Gaussian 16:  ES64L-G16RevA.03 25-Dec-2016

 ------------------
 #p CCSD(T)/cc-pVTZ
 ------------------

 -----------
 H2O_H2O_679
 -----------
 Symbolic Z-matrix:
 Charge =  0 Multiplicity = 1

                         Standard orientation:
 ---------------------------------------------------------------------
 Center     Atomic      Atomic             Coordinates (Angstroms)
 Number     Number       Type             X           Y           Z
 ---------------------------------------------------------------------
      1          8           0        0.014784   -1.160492    0.000000
      2          1           0       -0.785412   -1.730748    0.000000
      3          1           0        0.813729   -1.732499    0.000000
      4          8           0        0.014784    1.164352    0.000000
      5          1           0        0.640121    1.922283    0.000000
      6          1           0       -0.904985    1.510086    0.000000
 ---------------------------------------------------------------------

 SCF Done:  E(RHF) =  -152.084678087     A.U. after   11 cycles
 E2 =    -0.5305197410D+00 EUMP2 =    -0.15261519782817D+03
 CCSD(T)
 CCSD(T)= -0.15264242554D+03

 The electronic state is 1-A'.
 Alpha  occ. eigenvalues --  -20.52797 -20.52679  -1.31150  -1.29695  -0.68313
 Alpha  occ. eigenvalues --   -0.67367  -0.57937  -0.48493  -0.48464  -0.46359
 Alpha virt. eigenvalues --    0.14526   0.17756   0.20549   0.22573   0.50650
 Alpha virt. eigenvalues --    0.58896   0.58974   0.64005   0.71877   0.76745
 Alpha virt. eigenvalues --    0.77407   0.80780   0.84174   0.86561   0.86871

 Mulliken charges:
               1
     1  O   -0.454995
     2  H    0.223268
     3  H    0.230761
     4  O   -0.448437
     5  H    0.217553
     6  H    0.231849
 Sum of Mulliken charges =  -0.00000

 Dipole moment (field-independent basis, Debye):
    X=             -0.4532    Y=             -0.0762    Z=              0.0000  Tot=              0.4596
 Quadrupole moment (field-independent basis, Debye-Ang):
   XX=             -8.1565   YY=             -3.7932   ZZ=            -14.7337
   XY=             -0.1902   XZ=              0.0000   YZ=              0.0000

 Normal termination of Gaussian 16 at Fri Aug 26 18:58:35 2022.
