 Gaussian 16, Revision A.03,
 Gaussian 16:  ES64L-G16RevA.03 25-Dec-2016

 ------------------
 #p CCSD(T)/cc-pVTZ
 ------------------

 ------------
 H2O_H2O_4589
 ------------
 Symbolic Z-matrix:
 Charge =  0 Multiplicity = 1

                         Standard orientation:
 ---------------------------------------------------------------------
 Center     Atomic      Atomic             Coordinates (Angstroms)
 Number     Number       Type             X           Y           Z
 ---------------------------------------------------------------------
      1          8           0        0.045338   -3.212539    0.000000
      2          1           0       -0.754921   -3.782707    0.000000
      3          1           0        0.844220   -3.784635    0.000000
      4          8           0        0.045338    3.257120    0.000000
      5          1           0        0.080161    4.239104    0.000000
      6          1           0       -0.894865    2.971593    0.000000
 ---------------------------------------------------------------------

 SCF Done:  E(RHF) =  -152.107184577     A.U. after   10 cycles
 E2 =    -0.5258976573D+00 EUMP2 =    -0.15263308223398D+03
 CCSD(T)
 CCSD(T)= -0.15266030717D+03

 The electronic state is 1-A'.
 Alpha  occ. eigenvalues --  -20.55437 -20.55191  -1.32735  -1.32488  -0.70141
 Alpha  occ. eigenvalues --   -0.69890  -0.56172  -0.55925  -0.49845  -0.49599
 Alpha virt. eigenvalues --    0.14218   0.14469   0.20284   0.20543   0.54423
 Alpha virt. eigenvalues --    0.54685   0.57322   0.57568   0.68030   0.68290
 Alpha virt. eigenvalues --    0.79035   0.79278   0.80470   0.80735   0.82396

 Mulliken charges:
               1
     1  O   -0.507562
     2  H    0.252830
     3  H    0.254733
     4  O   -0.507396
     5  H    0.252125
     6  H    0.255271
 Sum of Mulliken charges =  -0.00000

 Dipole moment (field-independent basis, Debye):
    X=             -1.5586    Y=             -0.7780    Z=              0.0000  Tot=              1.7420
 Quadrupole moment (field-independent basis, Debye-Ang):
   XX=             -9.0966   YY=             10.0282   ZZ=            -14.7115
   XY=             -4.2549   XZ=              0.0000   YZ=              0.0000

 Normal termination of Gaussian 16 at Sat Aug 27 08:12:38 2022.
