 Gaussian 16, Revision A.03,
 Gaussian 16:  ES64L-G16RevA.03 25-Dec-2016

 ------------------
 #p CCSD(T)/cc-pVTZ
 ------------------

 ------------
 H2O_H2O_2841
 ------------
 Symbolic Z-matrix:
 Charge =  0 Multiplicity = 1

                         Standard orientation:
 ---------------------------------------------------------------------
 Center     Atomic      Atomic             Coordinates (Angstroms)
 Number     Number       Type             X           Y           Z
 ---------------------------------------------------------------------
      1          8           0        0.049514   -2.275117    0.000000
      2          1           0       -0.751111   -2.844770    0.000000
      3          1           0        0.848028   -2.847726    0.000000
      4          8           0        0.049514    2.332048    0.000000
      5          1           0       -0.043507    3.310236    0.000000
      6          1           0       -0.845636    1.926818    0.000000
 ---------------------------------------------------------------------

 SCF Done:  E(RHF) =  -152.107002455     A.U. after   10 cycles
 E2 =    -0.5260139546D+00 EUMP2 =    -0.15263301640948D+03
 CCSD(T)
 CCSD(T)= -0.15266023579D+03

 The electronic state is 1-A'.
 Alpha  occ. eigenvalues --  -20.55390 -20.54735  -1.32683  -1.32026  -0.70092
 Alpha  occ. eigenvalues --   -0.69416  -0.56105  -0.55450  -0.49791  -0.49138
 Alpha virt. eigenvalues --    0.13744   0.15287   0.20210   0.21205   0.54230
 Alpha virt. eigenvalues --    0.54979   0.57370   0.57937   0.66484   0.71400
 Alpha virt. eigenvalues --    0.79085   0.79733   0.80256   0.81349   0.82888

 Mulliken charges:
               1
     1  O   -0.505730
     2  H    0.250312
     3  H    0.255720
     4  O   -0.505584
     5  H    0.248246
     6  H    0.257036
 Sum of Mulliken charges =  -0.00000

 Dipole moment (field-independent basis, Debye):
    X=             -1.6873    Y=             -1.0157    Z=              0.0000  Tot=              1.9694
 Quadrupole moment (field-independent basis, Debye-Ang):
   XX=             -9.3473   YY=              3.2398   ZZ=            -14.7121
   XY=             -3.2737   XZ=              0.0000   YZ=              0.0000

 Normal termination of Gaussian 16 at Fri Aug 26 16:40:47 2022.
