 Gaussian 16, Revision A.03,
 Gaussian 16:  ES64L-G16RevA.03 25-Dec-2016

 ------------------
 #p CCSD(T)/cc-pVTZ
 ------------------

 ------------
 H2O_H2O_4738
 ------------
 Symbolic Z-matrix:
 Charge =  0 Multiplicity = 1

                         Standard orientation:
 ---------------------------------------------------------------------
 Center     Atomic      Atomic             Coordinates (Angstroms)
 Number     Number       Type             X           Y           Z
 ---------------------------------------------------------------------
      1          8           0        0.042962   -3.295445    0.000000
      2          1           0       -0.757246   -3.865685    0.000000
      3          1           0        0.841895   -3.867468    0.000000
      4          8           0        0.042962    3.334261    0.000000
      5          1           0        0.141846    4.311874    0.000000
      6          1           0       -0.913882    3.110752    0.000000
 ---------------------------------------------------------------------

 SCF Done:  E(RHF) =  -152.107166155     A.U. after   10 cycles
 E2 =    -0.5258974746D+00 EUMP2 =    -0.15263306362927D+03
 CCSD(T)
 CCSD(T)= -0.15266028908D+03

 The electronic state is 1-A'.
 Alpha  occ. eigenvalues --  -20.55419 -20.55216  -1.32717  -1.32512  -0.70123
 Alpha  occ. eigenvalues --   -0.69915  -0.56153  -0.55949  -0.49827  -0.49623
 Alpha virt. eigenvalues --    0.14237   0.14442   0.20299   0.20513   0.54441
 Alpha virt. eigenvalues --    0.54658   0.57338   0.57542   0.68054   0.68264
 Alpha virt. eigenvalues --    0.79053   0.79254   0.80489   0.80708   0.82414

 Mulliken charges:
               1
     1  O   -0.507449
     2  H    0.252882
     3  H    0.254567
     4  O   -0.507312
     5  H    0.252288
     6  H    0.255024
 Sum of Mulliken charges =  -0.00000

 Dipole moment (field-independent basis, Debye):
    X=             -1.4773    Y=             -0.6768    Z=              0.0000  Tot=              1.6250
 Quadrupole moment (field-independent basis, Debye-Ang):
   XX=             -8.9643   YY=             11.0878   ZZ=            -14.7114
   XY=             -4.0711   XZ=              0.0000   YZ=              0.0000

 Normal termination of Gaussian 16 at Sat Aug 27 09:04:14 2022.
