 Gaussian 16, Revision A.03,
 Gaussian 16:  ES64L-G16RevA.03 25-Dec-2016

 ------------------
 #p CCSD(T)/cc-pVTZ
 ------------------

 ------------
 H2O_H2O_1786
 ------------
 Symbolic Z-matrix:
 Charge =  0 Multiplicity = 1

                         Standard orientation:
 ---------------------------------------------------------------------
 Center     Atomic      Atomic             Coordinates (Angstroms)
 Number     Number       Type             X           Y           Z
 ---------------------------------------------------------------------
      1          8           0        0.037684   -1.732288    0.000000
      2          1           0       -0.762946   -2.301935    0.000000
      3          1           0        0.836193   -2.304903    0.000000
      4          8           0        0.037684    1.760495    0.000000
      5          1           0        0.264035    2.716670    0.000000
      6          1           0       -0.940220    1.664515    0.000000
 ---------------------------------------------------------------------

 SCF Done:  E(RHF) =  -152.105197405     A.U. after   10 cycles
 E2 =    -0.5266369123D+00 EUMP2 =    -0.15263183431764D+03
 CCSD(T)
 CCSD(T)= -0.15265905796D+03

 The electronic state is 1-A'.
 Alpha  occ. eigenvalues --  -20.54778 -20.54207  -1.32057  -1.31472  -0.69479
 Alpha  occ. eigenvalues --   -0.68870  -0.55569  -0.54580  -0.49165  -0.48569
 Alpha virt. eigenvalues --    0.13884   0.16219   0.20362   0.21831   0.53158
 Alpha virt. eigenvalues --    0.55781   0.57844   0.58527   0.63469   0.76808
 Alpha virt. eigenvalues --    0.78712   0.78794   0.80171   0.81141   0.84648

 Mulliken charges:
               1
     1  O   -0.489346
     2  H    0.241099
     3  H    0.249420
     4  O   -0.490158
     5  H    0.238917
     6  H    0.250067
 Sum of Mulliken charges =  -0.00000

 Dipole moment (field-independent basis, Debye):
    X=             -1.2567    Y=             -0.5241    Z=              0.0000  Tot=              1.3616
 Quadrupole moment (field-independent basis, Debye-Ang):
   XX=             -8.7301   YY=              0.8969   ZZ=            -14.7115
   XY=             -1.4485   XZ=              0.0000   YZ=              0.0000

 Normal termination of Gaussian 16 at Sat Aug 27 06:46:52 2022.
