 Gaussian 16, Revision A.03,
 Gaussian 16:  ES64L-G16RevA.03 25-Dec-2016

 ------------------
 #p CCSD(T)/cc-pVTZ
 ------------------

 ------------
 H2O_H2O_2121
 ------------
 Symbolic Z-matrix:
 Charge =  0 Multiplicity = 1

                         Standard orientation:
 ---------------------------------------------------------------------
 Center     Atomic      Atomic             Coordinates (Angstroms)
 Number     Number       Type             X           Y           Z
 ---------------------------------------------------------------------
      1          8           0        0.056131   -1.870674    0.000000
      2          1           0       -0.744874   -2.439793    0.000000
      3          1           0        0.854263   -2.443816    0.000000
      4          8           0        0.056131    1.962334    0.000000
      5          1           0       -0.345783    2.858978    0.000000
      6          1           0       -0.661706    1.291352    0.000000
 ---------------------------------------------------------------------

 SCF Done:  E(RHF) =  -152.108276696     A.U. after   10 cycles
 E2 =    -0.5262704915D+00 EUMP2 =    -0.15263454718713D+03
 CCSD(T)
 CCSD(T)= -0.15266170840D+03

 The electronic state is 1-A'.
 Alpha  occ. eigenvalues --  -20.55916 -20.54228  -1.33188  -1.31521  -0.70597
 Alpha  occ. eigenvalues --   -0.68889  -0.56641  -0.54978  -0.50307  -0.48648
 Alpha virt. eigenvalues --    0.13103   0.16181   0.19877   0.22945   0.53939
 Alpha virt. eigenvalues --    0.54749   0.56952   0.58556   0.65821   0.74434
 Alpha virt. eigenvalues --    0.78340   0.79101   0.80268   0.80365   0.84002

 Mulliken charges:
               1
     1  O   -0.502705
     2  H    0.248707
     3  H    0.257660
     4  O   -0.510593
     5  H    0.244922
     6  H    0.262009
 Sum of Mulliken charges =   0.00000

 Dipole moment (field-independent basis, Debye):
    X=             -1.8903    Y=             -1.6947    Z=              0.0000  Tot=              2.5388
 Quadrupole moment (field-independent basis, Debye-Ang):
   XX=             -9.7830   YY=             -1.0280   ZZ=            -14.7170
   XY=             -3.5941   XZ=              0.0000   YZ=              0.0000

 Normal termination of Gaussian 16 at Sat Aug 27 08:42:29 2022.
