 Gaussian 16, Revision A.03,
 Gaussian 16:  ES64L-G16RevA.03 25-Dec-2016

 ------------------
 #p CCSD(T)/cc-pVTZ
 ------------------

 -----------
 H2O_H2O_373
 -----------
 Symbolic Z-matrix:
 Charge =  0 Multiplicity = 1

                         Standard orientation:
 ---------------------------------------------------------------------
 Center     Atomic      Atomic             Coordinates (Angstroms)
 Number     Number       Type             X           Y           Z
 ---------------------------------------------------------------------
      1          8           0        0.057256   -0.932065    0.000000
      2          1           0       -0.745149   -1.499209    0.000000
      3          1           0        0.853973   -1.507172    0.000000
      4          8           0        0.057256    1.038252    0.000000
      5          1           0       -0.456193    1.876032    0.000000
      6          1           0       -0.568727    0.280855    0.000000
 ---------------------------------------------------------------------

 SCF Done:  E(RHF) =  -152.034755088     A.U. after   11 cycles
 E2 =    -0.5392681805D+00 EUMP2 =    -0.15257402326859D+03
 CCSD(T)
 CCSD(T)= -0.15259987073D+03

 The electronic state is 1-A'.
 Alpha  occ. eigenvalues --  -20.57038 -20.48636  -1.38092  -1.26840  -0.75770
 Alpha  occ. eigenvalues --   -0.71392  -0.53827  -0.50901  -0.50080  -0.43741
 Alpha virt. eigenvalues --    0.12687   0.18464   0.19806   0.27339   0.49072
 Alpha virt. eigenvalues --    0.54245   0.62832   0.67938   0.72449   0.74773
 Alpha virt. eigenvalues --    0.77912   0.79757   0.83808   0.85484   0.87887

 Mulliken charges:
               1
     1  O   -0.357879
     2  H    0.198826
     3  H    0.235643
     4  O   -0.523205
     5  H    0.180081
     6  H    0.266533
 Sum of Mulliken charges =  -0.00000

 Dipole moment (field-independent basis, Debye):
    X=             -1.6327    Y=             -2.6371    Z=              0.0000  Tot=              3.1016
 Quadrupole moment (field-independent basis, Debye-Ang):
   XX=             -9.8263   YY=             -7.3434   ZZ=            -14.6200
   XY=             -2.1366   XZ=              0.0000   YZ=              0.0000

 Normal termination of Gaussian 16 at Fri Aug 26 15:46:38 2022.
