 Gaussian 16, Revision A.03,
 Gaussian 16:  ES64L-G16RevA.03 25-Dec-2016

 ------------------
 #p CCSD(T)/cc-pVTZ
 ------------------

 ------------
 H2O_H2O_2496
 ------------
 Symbolic Z-matrix:
 Charge =  0 Multiplicity = 1

                         Standard orientation:
 ---------------------------------------------------------------------
 Center     Atomic      Atomic             Coordinates (Angstroms)
 Number     Number       Type             X           Y           Z
 ---------------------------------------------------------------------
      1          8           0        0.056120   -2.070099    0.000000
      2          1           0       -0.744750   -2.639407    0.000000
      3          1           0        0.854388   -2.643051    0.000000
      4          8           0        0.056120    2.161785    0.000000
      5          1           0       -0.346006    3.058334    0.000000
      6          1           0       -0.661558    1.490634    0.000000
 ---------------------------------------------------------------------

 SCF Done:  E(RHF) =  -152.108012988     A.U. after   10 cycles
 E2 =    -0.5260794894D+00 EUMP2 =    -0.15263409247767D+03
 CCSD(T)
 CCSD(T)= -0.15266127433D+03

 The electronic state is 1-A'.
 Alpha  occ. eigenvalues --  -20.55825 -20.54491  -1.33106  -1.31786  -0.70514
 Alpha  occ. eigenvalues --   -0.69161  -0.56562  -0.55239  -0.50223  -0.48908
 Alpha virt. eigenvalues --    0.13164   0.15768   0.19941   0.22105   0.54063
 Alpha virt. eigenvalues --    0.54644   0.57044   0.58345   0.66194   0.72886
 Alpha virt. eigenvalues --    0.78637   0.79465   0.79971   0.81507   0.82306

 Mulliken charges:
               1
     1  O   -0.506876
     2  H    0.250758
     3  H    0.257942
     4  O   -0.510330
     5  H    0.247377
     6  H    0.261129
 Sum of Mulliken charges =  -0.00000

 Dipole moment (field-independent basis, Debye):
    X=             -1.9040    Y=             -1.6638    Z=              0.0000  Tot=              2.5286
 Quadrupole moment (field-independent basis, Debye-Ang):
   XX=             -9.7823   YY=             -0.0570   ZZ=            -14.7153
   XY=             -3.9685   XZ=              0.0000   YZ=              0.0000

 Normal termination of Gaussian 16 at Sat Aug 27 10:52:44 2022.
