 Gaussian 16, Revision A.03,
 Gaussian 16:  ES64L-G16RevA.03 25-Dec-2016

 ------------------
 #p CCSD(T)/cc-pVTZ
 ------------------

 ------------
 H2O_H2O_2546
 ------------
 Symbolic Z-matrix:
 Charge =  0 Multiplicity = 1

                         Standard orientation:
 ---------------------------------------------------------------------
 Center     Atomic      Atomic             Coordinates (Angstroms)
 Number     Number       Type             X           Y           Z
 ---------------------------------------------------------------------
      1          8           0        0.056119   -2.096689    0.000000
      2          1           0       -0.744735   -2.666020    0.000000
      3          1           0        0.854403   -2.669619    0.000000
      4          8           0        0.056119    2.188379    0.000000
      5          1           0       -0.346033    3.084916    0.000000
      6          1           0       -0.661540    1.517206    0.000000
 ---------------------------------------------------------------------

 SCF Done:  E(RHF) =  -152.107982271     A.U. after   10 cycles
 E2 =    -0.5260617499D+00 EUMP2 =    -0.15263404402121D+03
 CCSD(T)
 CCSD(T)= -0.15266122825D+03

 The electronic state is 1-A'.
 Alpha  occ. eigenvalues --  -20.55814 -20.54520  -1.33098  -1.31816  -0.70505
 Alpha  occ. eigenvalues --   -0.69192  -0.56554  -0.55269  -0.50213  -0.48938
 Alpha virt. eigenvalues --    0.13182   0.15716   0.19948   0.22011   0.54047
 Alpha virt. eigenvalues --    0.54672   0.57050   0.58296   0.66250   0.72632
 Alpha virt. eigenvalues --    0.78656   0.79503   0.79936   0.81346   0.82390

 Mulliken charges:
               1
     1  O   -0.507274
     2  H    0.250969
     3  H    0.257948
     4  O   -0.510265
     5  H    0.247628
     6  H    0.260994
 Sum of Mulliken charges =  -0.00000

 Dipole moment (field-independent basis, Debye):
    X=             -1.9054    Y=             -1.6604    Z=              0.0000  Tot=              2.5274
 Quadrupole moment (field-independent basis, Debye-Ang):
   XX=             -9.7823   YY=              0.0713   ZZ=            -14.7151
   XY=             -4.0185   XZ=              0.0000   YZ=              0.0000

 Normal termination of Gaussian 16 at Fri Aug 26 13:35:43 2022.
