 Gaussian 16, Revision A.03,
 Gaussian 16:  ES64L-G16RevA.03 25-Dec-2016

 ------------------
 #p CCSD(T)/cc-pVTZ
 ------------------

 ------------
 H2O_H2O_3554
 ------------
 Symbolic Z-matrix:
 Charge =  0 Multiplicity = 1

                         Standard orientation:
 ---------------------------------------------------------------------
 Center     Atomic      Atomic             Coordinates (Angstroms)
 Number     Number       Type             X           Y           Z
 ---------------------------------------------------------------------
      1          8           0        0.014783   -2.689512    0.000000
      2          1           0       -0.785058   -3.260266    0.000000
      3          1           0        0.814084   -3.261022    0.000000
      4          8           0        0.014783    2.693390    0.000000
      5          1           0        0.639649    3.451711    0.000000
      6          1           0       -0.905201    3.038552    0.000000
 ---------------------------------------------------------------------

 SCF Done:  E(RHF) =  -152.106454890     A.U. after   10 cycles
 E2 =    -0.5259806309D+00 EUMP2 =    -0.15263243552130D+03
 CCSD(T)
 CCSD(T)= -0.15265967487D+03

 The electronic state is 1-A'.
 Alpha  occ. eigenvalues --  -20.55045 -20.55014  -1.32339  -1.32308  -0.69748
 Alpha  occ. eigenvalues --   -0.69716  -0.55742  -0.55710  -0.49444  -0.49413
 Alpha virt. eigenvalues --    0.14459   0.14676   0.20551   0.20638   0.54795
 Alpha virt. eigenvalues --    0.54886   0.57651   0.57700   0.68094   0.68988
 Alpha virt. eigenvalues --    0.79433   0.79465   0.80873   0.80930   0.82778

 Mulliken charges:
               1
     1  O   -0.503259
     2  H    0.251103
     3  H    0.252156
     4  O   -0.503208
     5  H    0.250895
     6  H    0.252313
 Sum of Mulliken charges =  -0.00000

 Dipole moment (field-independent basis, Debye):
    X=             -0.5062    Y=             -0.0681    Z=              0.0000  Tot=              0.5108
 Quadrupole moment (field-independent basis, Debye-Ang):
   XX=             -7.9468   YY=              9.2498   ZZ=            -14.7102
   XY=             -0.9244   XZ=              0.0000   YZ=              0.0000

 Normal termination of Gaussian 16 at Sat Aug 27 01:26:44 2022.
