 Gaussian 16, Revision A.03,
 Gaussian 16:  ES64L-G16RevA.03 25-Dec-2016

 ------------------
 #p CCSD(T)/cc-pVTZ
 ------------------

 -----------
 H2O_H2O_862
 -----------
 Symbolic Z-matrix:
 Charge =  0 Multiplicity = 1

                         Standard orientation:
 ---------------------------------------------------------------------
 Center     Atomic      Atomic             Coordinates (Angstroms)
 Number     Number       Type             X           Y           Z
 ---------------------------------------------------------------------
      1          8           0        0.040431   -1.237609    0.000000
      2          1           0       -0.760720   -1.806522    0.000000
      3          1           0        0.838416   -1.810955    0.000000
      4          8           0        0.040431    1.270841    0.000000
      5          1           0        0.204648    2.239622    0.000000
      6          1           0       -0.929247    1.111997    0.000000
 ---------------------------------------------------------------------

 SCF Done:  E(RHF) =  -152.096344057     A.U. after   11 cycles
 E2 =    -0.5291730839D+00 EUMP2 =    -0.15262551714103D+03
 CCSD(T)
 CCSD(T)= -0.15265274133D+03

 The electronic state is 1-A'.
 Alpha  occ. eigenvalues --  -20.54124 -20.53042  -1.31808  -1.30243  -0.69173
 Alpha  occ. eigenvalues --   -0.67898  -0.56599  -0.51449  -0.49017  -0.47144
 Alpha virt. eigenvalues --    0.14099   0.17368   0.20263   0.23088   0.53133
 Alpha virt. eigenvalues --    0.58032   0.58198   0.60685   0.70486   0.75931
 Alpha virt. eigenvalues --    0.77307   0.78902   0.83422   0.85216   0.85707

 Mulliken charges:
               1
     1  O   -0.469650
     2  H    0.227157
     3  H    0.243985
     4  O   -0.456928
     5  H    0.213061
     6  H    0.242376
 Sum of Mulliken charges =  -0.00000

 Dipole moment (field-independent basis, Debye):
    X=             -1.2647    Y=             -0.6489    Z=              0.0000  Tot=              1.4214
 Quadrupole moment (field-independent basis, Debye-Ang):
   XX=             -8.9465   YY=             -3.1633   ZZ=            -14.7238
   XY=             -0.9749   XZ=              0.0000   YZ=              0.0000

 1886\MP4DQ=-152.6340666\MP4SDQ=-152.6373025\CCSD=-152.6366474\CCSD(T)=
 Normal termination of Gaussian 16 at Fri Aug 26 20:39:52 2022.
