 Gaussian 16, Revision A.03,
 Gaussian 16:  ES64L-G16RevA.03 25-Dec-2016

 ------------------
 #p CCSD(T)/cc-pVTZ
 ------------------

 ------------
 H2O_H2O_1356
 ------------
 Symbolic Z-matrix:
 Charge =  0 Multiplicity = 1

                         Standard orientation:
 ---------------------------------------------------------------------
 Center     Atomic      Atomic             Coordinates (Angstroms)
 Number     Number       Type             X           Y           Z
 ---------------------------------------------------------------------
      1          8           0        0.021862   -1.516885    0.000000
      2          1           0       -0.778415   -2.087027    0.000000
      3          1           0        0.820726   -2.089005    0.000000
      4          8           0        0.021862    1.525526    0.000000
      5          1           0        0.543037    2.358521    0.000000
      6          1           0       -0.935133    1.748384    0.000000
 ---------------------------------------------------------------------

 SCF Done:  E(RHF) =  -152.102143239     A.U. after   11 cycles
 E2 =    -0.5273113132D+00 EUMP2 =    -0.15262945455229D+03
 CCSD(T)
 CCSD(T)= -0.15265673364D+03

 The electronic state is 1-A'.
 Alpha  occ. eigenvalues --  -20.54064 -20.53857  -1.31410  -1.31105  -0.68829
 Alpha  occ. eigenvalues --   -0.68547  -0.55620  -0.53244  -0.48587  -0.48095
 Alpha virt. eigenvalues --    0.14269   0.16664   0.20513   0.21936   0.52195
 Alpha virt. eigenvalues --    0.58277   0.58504   0.59175   0.65781   0.76673
 Alpha virt. eigenvalues --    0.77784   0.78586   0.79032   0.82555   0.85964

 Mulliken charges:
               1
     1  O   -0.475771
     2  H    0.234490
     3  H    0.241528
     4  O   -0.473380
     5  H    0.232972
     6  H    0.240160
 Sum of Mulliken charges =  -0.00000

 Dipole moment (field-independent basis, Debye):
    X=             -0.7161    Y=             -0.1631    Z=              0.0000  Tot=              0.7344
 Quadrupole moment (field-independent basis, Debye-Ang):
   XX=             -8.1863   YY=             -0.4015   ZZ=            -14.7110
   XY=             -0.5472   XZ=              0.0000   YZ=              0.0000

 Normal termination of Gaussian 16 at Sat Aug 27 04:12:03 2022.
