 Gaussian 16, Revision A.03,
 Gaussian 16:  ES64L-G16RevA.03 25-Dec-2016

 ------------------
 #p CCSD(T)/cc-pVTZ
 ------------------

 ------------
 H2O_H2O_3577
 ------------
 Symbolic Z-matrix:
 Charge =  0 Multiplicity = 1

                         Standard orientation:
 ---------------------------------------------------------------------
 Center     Atomic      Atomic             Coordinates (Angstroms)
 Number     Number       Type             X           Y           Z
 ---------------------------------------------------------------------
      1          8           0        0.007455   -2.704385    0.000000
      2          1           0       -0.792252   -3.275328    0.000000
      3          1           0        0.806890   -3.275707    0.000000
      4          8           0        0.007455    2.705359    0.000000
      5          1           0        0.725797    3.375800    0.000000
      6          1           0       -0.859715    3.167445    0.000000
 ---------------------------------------------------------------------

 SCF Done:  E(RHF) =  -152.106434622     A.U. after   10 cycles
 E2 =    -0.5259811923D+00 EUMP2 =    -0.15263241581400D+03
 CCSD(T)
 CCSD(T)= -0.15265965566D+03

 The electronic state is 1-A'.
 Alpha  occ. eigenvalues --  -20.55029 -20.55022  -1.32324  -1.32316  -0.69732
 Alpha  occ. eigenvalues --   -0.69724  -0.55726  -0.55716  -0.49428  -0.49420
 Alpha virt. eigenvalues --    0.14474   0.14666   0.20561   0.20630   0.54807
 Alpha virt. eigenvalues --    0.54881   0.57662   0.57695   0.68134   0.68960
 Alpha virt. eigenvalues --    0.79447   0.79459   0.80883   0.80926   0.82784

 Mulliken charges:
               1
     1  O   -0.503135
     2  H    0.251306
     3  H    0.251829
     4  O   -0.503122
     5  H    0.251212
     6  H    0.251910
 Sum of Mulliken charges =  -0.00000

 Dipole moment (field-independent basis, Debye):
    X=             -0.2553    Y=             -0.0171    Z=              0.0000  Tot=              0.2559
 Quadrupole moment (field-independent basis, Debye-Ang):
   XX=             -7.8445   YY=              9.5322   ZZ=            -14.7101
   XY=             -0.4627   XZ=              0.0000   YZ=              0.0000

 Normal termination of Gaussian 16 at Sat Aug 27 01:38:10 2022.
