 Gaussian 16, Revision A.03,
 Gaussian 16:  ES64L-G16RevA.03 25-Dec-2016

 ------------------
 #p CCSD(T)/cc-pVTZ
 ------------------

 ------------
 H2O_H2O_3609
 ------------
 Symbolic Z-matrix:
 Charge =  0 Multiplicity = 1

                         Standard orientation:
 ---------------------------------------------------------------------
 Center     Atomic      Atomic             Coordinates (Angstroms)
 Number     Number       Type             X           Y           Z
 ---------------------------------------------------------------------
      1          8           0        0.031740   -2.707789    0.000000
      2          1           0       -0.768405   -3.278117    0.000000
      3          1           0        0.830737   -3.279725    0.000000
      4          8           0        0.031740    2.726976    0.000000
      5          1           0        0.380179    3.645723    0.000000
      6          1           0       -0.950352    2.758624    0.000000
 ---------------------------------------------------------------------

 SCF Done:  E(RHF) =  -152.106668916     A.U. after   10 cycles
 E2 =    -0.5259618883D+00 EUMP2 =    -0.15263263080412D+03
 CCSD(T)
 CCSD(T)= -0.15265986558D+03

 The electronic state is 1-A'.
 Alpha  occ. eigenvalues --  -20.55167 -20.55017  -1.32463  -1.32310  -0.69871
 Alpha  occ. eigenvalues --   -0.69715  -0.55875  -0.55724  -0.49569  -0.49417
 Alpha virt. eigenvalues --    0.14367   0.14674   0.20463   0.20664   0.54682
 Alpha virt. eigenvalues --    0.54876   0.57549   0.57708   0.68037   0.68874
 Alpha virt. eigenvalues --    0.79309   0.79458   0.80751   0.80924   0.82701

 Mulliken charges:
               1
     1  O   -0.504534
     2  H    0.251164
     3  H    0.253372
     4  O   -0.504333
     5  H    0.250578
     6  H    0.253753
 Sum of Mulliken charges =   0.00000

 Dipole moment (field-independent basis, Debye):
    X=             -1.0873    Y=             -0.3369    Z=              0.0000  Tot=              1.1383
 Quadrupole moment (field-independent basis, Debye-Ang):
   XX=             -8.4406   YY=              8.4762   ZZ=            -14.7106
   XY=             -2.1656   XZ=              0.0000   YZ=              0.0000

 Normal termination of Gaussian 16 at Sat Aug 27 01:52:19 2022.
