 Gaussian 16, Revision A.03,
 Gaussian 16:  ES64L-G16RevA.03 25-Dec-2016

 ------------------
 #p CCSD(T)/cc-pVTZ
 ------------------

 ------------
 H2O_H2O_1440
 ------------
 Symbolic Z-matrix:
 Charge =  0 Multiplicity = 1

                         Standard orientation:
 ---------------------------------------------------------------------
 Center     Atomic      Atomic             Coordinates (Angstroms)
 Number     Number       Type             X           Y           Z
 ---------------------------------------------------------------------
      1          8           0        0.047554   -1.534028    0.000000
      2          1           0       -0.753511   -2.103061    0.000000
      3          1           0        0.845625   -2.107254    0.000000
      4          8           0        0.047554    1.584544    0.000000
      5          1           0        0.019468    2.566745    0.000000
      6          1           0       -0.872451    1.239440    0.000000
 ---------------------------------------------------------------------

 SCF Done:  E(RHF) =  -152.105366651     A.U. after   10 cycles
 E2 =    -0.5271338798D+00 EUMP2 =    -0.15263250053075D+03
 CCSD(T)
 CCSD(T)= -0.15265969676D+03

 The electronic state is 1-A'.
 Alpha  occ. eigenvalues --  -20.55099 -20.53791  -1.32398  -1.31045  -0.69822
 Alpha  occ. eigenvalues --   -0.68447  -0.55925  -0.54147  -0.49516  -0.48143
 Alpha virt. eigenvalues --    0.13725   0.16726   0.20121   0.22821   0.54057
 Alpha virt. eigenvalues --    0.55935   0.57571   0.58433   0.66006   0.76159
 Alpha virt. eigenvalues --    0.77374   0.77378   0.79420   0.82034   0.85165

 Mulliken charges:
               1
     1  O   -0.484827
     2  H    0.237939
     3  H    0.250804
     4  O   -0.488318
     5  H    0.232601
     6  H    0.251800
 Sum of Mulliken charges =   0.00000

 Dipole moment (field-independent basis, Debye):
    X=             -1.5593    Y=             -0.9621    Z=              0.0000  Tot=              1.8322
 Quadrupole moment (field-independent basis, Debye-Ang):
   XX=             -9.2607   YY=             -1.2069   ZZ=            -14.7165
   XY=             -1.8671   XZ=              0.0000   YZ=              0.0000

 Normal termination of Gaussian 16 at Sat Aug 27 04:46:40 2022.
