 Gaussian 16, Revision A.03,
 Gaussian 16:  ES64L-G16RevA.03 25-Dec-2016

 ------------------
 #p CCSD(T)/cc-pVTZ
 ------------------

 -----------
 H2O_H2O_568
 -----------
 Symbolic Z-matrix:
 Charge =  0 Multiplicity = 1

                         Standard orientation:
 ---------------------------------------------------------------------
 Center     Atomic      Atomic             Coordinates (Angstroms)
 Number     Number       Type             X           Y           Z
 ---------------------------------------------------------------------
      1          8           0        0.052912   -1.058046    0.000000
      2          1           0       -0.749026   -1.625850    0.000000
      3          1           0        0.850102   -1.632496    0.000000
      4          8           0        0.052912    1.128121    0.000000
      5          1           0       -0.164782    2.086304    0.000000
      6          1           0       -0.782883    0.611445    0.000000
 ---------------------------------------------------------------------

 SCF Done:  E(RHF) =  -152.080704719     A.U. after   11 cycles
 E2 =    -0.5328336449D+00 EUMP2 =    -0.15261353836406D+03
 CCSD(T)
 CCSD(T)= -0.15264044978D+03

 The electronic state is 1-A'.
 Alpha  occ. eigenvalues --  -20.55016 -20.51810  -1.33711  -1.29041  -0.71088
 Alpha  occ. eigenvalues --   -0.68506  -0.55607  -0.50840  -0.50638  -0.45965
 Alpha virt. eigenvalues --    0.13594   0.18244   0.19745   0.24721   0.51809
 Alpha virt. eigenvalues --    0.56779   0.60184   0.62421   0.71799   0.74736
 Alpha virt. eigenvalues --    0.78955   0.82763   0.84192   0.84248   0.87711

 Mulliken charges:
               1
     1  O   -0.438005
     2  H    0.215219
     3  H    0.237972
     4  O   -0.459239
     5  H    0.194032
     6  H    0.250021
 Sum of Mulliken charges =  -0.00000

 Dipole moment (field-independent basis, Debye):
    X=             -1.5831    Y=             -1.4593    Z=              0.0000  Tot=              2.1531
 Quadrupole moment (field-independent basis, Debye-Ang):
   XX=             -9.6317   YY=             -5.3228   ZZ=            -14.7086
   XY=             -1.5974   XZ=              0.0000   YZ=              0.0000

 Normal termination of Gaussian 16 at Fri Aug 26 17:43:26 2022.
