 Gaussian 16, Revision A.03,
 Gaussian 16:  ES64L-G16RevA.03 25-Dec-2016

 ------------------
 #p CCSD(T)/cc-pVTZ
 ------------------

 ------------
 H2O_H2O_3518
 ------------
 Symbolic Z-matrix:
 Charge =  0 Multiplicity = 1

                         Standard orientation:
 ---------------------------------------------------------------------
 Center     Atomic      Atomic             Coordinates (Angstroms)
 Number     Number       Type             X           Y           Z
 ---------------------------------------------------------------------
      1          8           0        0.052826   -2.626829    0.000000
      2          1           0       -0.747719   -3.196595    0.000000
      3          1           0        0.851421   -3.199324    0.000000
      4          8           0        0.052826    2.697162    0.000000
      5          1           0       -0.167214    3.654809    0.000000
      6          1           0       -0.781701    2.178441    0.000000
 ---------------------------------------------------------------------

 SCF Done:  E(RHF) =  -152.107319004     A.U. after   10 cycles
 E2 =    -0.5259176724D+00 EUMP2 =    -0.15263323667607D+03
 CCSD(T)
 CCSD(T)= -0.15266045615D+03

 The electronic state is 1-A'.
 Alpha  occ. eigenvalues --  -20.55539 -20.54950  -1.32837  -1.32245  -0.70243
 Alpha  occ. eigenvalues --   -0.69640  -0.56279  -0.55685  -0.49947  -0.49359
 Alpha virt. eigenvalues --    0.13946   0.14849   0.20170   0.20884   0.54288
 Alpha virt. eigenvalues --    0.54914   0.57229   0.57790   0.67473   0.69056
 Alpha virt. eigenvalues --    0.78935   0.79510   0.80332   0.80797   0.82622

 Mulliken charges:
               1
     1  O   -0.508324
     2  H    0.252269
     3  H    0.256105
     4  O   -0.507867
     5  H    0.250477
     6  H    0.257340
 Sum of Mulliken charges =  -0.00000

 Dipole moment (field-independent basis, Debye):
    X=             -1.8096    Y=             -1.2395    Z=              0.0000  Tot=              2.1934
 Quadrupole moment (field-independent basis, Debye-Ang):
   XX=             -9.5589   YY=              4.3595   ZZ=            -14.7122
   XY=             -4.3555   XZ=              0.0000   YZ=              0.0000

 Normal termination of Gaussian 16 at Sat Aug 27 01:11:19 2022.
