 Gaussian 16, Revision A.03,
 Gaussian 16:  ES64L-G16RevA.03 25-Dec-2016

 ------------------
 #p CCSD(T)/cc-pVTZ
 ------------------

 ------------
 H2O_H2O_3652
 ------------
 Symbolic Z-matrix:
 Charge =  0 Multiplicity = 1

                         Standard orientation:
 ---------------------------------------------------------------------
 Center     Atomic      Atomic             Coordinates (Angstroms)
 Number     Number       Type             X           Y           Z
 ---------------------------------------------------------------------
      1          8           0        0.007455   -2.744273    0.000000
      2          1           0       -0.792250   -3.315218    0.000000
      3          1           0        0.806892   -3.315592    0.000000
      4          8           0        0.007455    2.745246    0.000000
      5          1           0        0.725795    3.415690    0.000000
      6          1           0       -0.859716    3.207330    0.000000
 ---------------------------------------------------------------------

 SCF Done:  E(RHF) =  -152.106478508     A.U. after   10 cycles
 E2 =    -0.5259750309D+00 EUMP2 =    -0.15263245353872D+03
 CCSD(T)
 CCSD(T)= -0.15265969259D+03

 The electronic state is 1-A'.
 Alpha  occ. eigenvalues --  -20.55047 -20.55039  -1.32341  -1.32334  -0.69750
 Alpha  occ. eigenvalues --   -0.69742  -0.55745  -0.55736  -0.49446  -0.49438
 Alpha virt. eigenvalues --    0.14475   0.14638   0.20554   0.20614   0.54796
 Alpha virt. eigenvalues --    0.54857   0.57650   0.57679   0.68191   0.68856
 Alpha virt. eigenvalues --    0.79430   0.79440   0.80869   0.80903   0.82781

 Mulliken charges:
               1
     1  O   -0.503392
     2  H    0.251445
     3  H    0.251947
     4  O   -0.503380
     5  H    0.251354
     6  H    0.252027
 Sum of Mulliken charges =  -0.00000

 Dipole moment (field-independent basis, Debye):
    X=             -0.2554    Y=             -0.0171    Z=              0.0000  Tot=              0.2560
 Quadrupole moment (field-independent basis, Debye-Ang):
   XX=             -7.8438   YY=              9.8524   ZZ=            -14.7102
   XY=             -0.4728   XZ=              0.0000   YZ=              0.0000

 Normal termination of Gaussian 16 at Sat Aug 27 02:13:40 2022.
