 Gaussian 16, Revision A.03,
 Gaussian 16:  ES64L-G16RevA.03 25-Dec-2016

 ------------------
 #p CCSD(T)/cc-pVTZ
 ------------------

 ------------
 H2O_H2O_2708
 ------------
 Symbolic Z-matrix:
 Charge =  0 Multiplicity = 1

                         Standard orientation:
 ---------------------------------------------------------------------
 Center     Atomic      Atomic             Coordinates (Angstroms)
 Number     Number       Type             X           Y           Z
 ---------------------------------------------------------------------
      1          8           0        0.028565   -2.231279    0.000000
      2          1           0       -0.771633   -2.801533    0.000000
      3          1           0        0.827508   -2.803289    0.000000
      4          8           0        0.028565    2.246520    0.000000
      5          1           0        0.436431    3.140473    0.000000
      6          1           0       -0.949345    2.342423    0.000000
 ---------------------------------------------------------------------

 SCF Done:  E(RHF) =  -152.106014489     A.U. after   10 cycles
 E2 =    -0.5260937935D+00 EUMP2 =    -0.15263210828286D+03
 CCSD(T)
 CCSD(T)= -0.15265935039D+03

 The electronic state is 1-A'.
 Alpha  occ. eigenvalues --  -20.54919 -20.54740  -1.32210  -1.32028  -0.69622
 Alpha  occ. eigenvalues --   -0.69434  -0.55599  -0.55392  -0.49312  -0.49132
 Alpha virt. eigenvalues --    0.14181   0.15235   0.20516   0.20969   0.54570
 Alpha virt. eigenvalues --    0.55333   0.57724   0.57947   0.65659   0.72038
 Alpha virt. eigenvalues --    0.79514   0.79787   0.80934   0.81240   0.82435

 Mulliken charges:
               1
     1  O   -0.500463
     2  H    0.248568
     3  H    0.251952
     4  O   -0.500110
     5  H    0.247800
     6  H    0.252253
 Sum of Mulliken charges =  -0.00000

 Dipole moment (field-independent basis, Debye):
    X=             -0.9718    Y=             -0.2716    Z=              0.0000  Tot=              1.0091
 Quadrupole moment (field-independent basis, Debye-Ang):
   XX=             -8.3305   YY=              5.1182   ZZ=            -14.7101
   XY=             -1.4524   XZ=              0.0000   YZ=              0.0000

 Normal termination of Gaussian 16 at Fri Aug 26 15:18:46 2022.
