 Gaussian 16, Revision A.03,
 Gaussian 16:  ES64L-G16RevA.03 25-Dec-2016

 ------------------
 #p CCSD(T)/cc-pVTZ
 ------------------

 ------------
 H2O_H2O_4359
 ------------
 Symbolic Z-matrix:
 Charge =  0 Multiplicity = 1

                         Standard orientation:
 ---------------------------------------------------------------------
 Center     Atomic      Atomic             Coordinates (Angstroms)
 Number     Number       Type             X           Y           Z
 ---------------------------------------------------------------------
      1          8           0        0.031739   -3.106662    0.000000
      2          1           0       -0.768332   -3.677093    0.000000
      3          1           0        0.830809   -3.678495    0.000000
      4          8           0        0.031739    3.125857    0.000000
      5          1           0        0.380059    4.044649    0.000000
      6          1           0       -0.950357    3.157379    0.000000
 ---------------------------------------------------------------------

 SCF Done:  E(RHF) =  -152.106940369     A.U. after   10 cycles
 E2 =    -0.5259213287D+00 EUMP2 =    -0.15263286169726D+03
 CCSD(T)
 CCSD(T)= -0.15266009171D+03

 The electronic state is 1-A'.
 Alpha  occ. eigenvalues --  -20.55281 -20.55167  -1.32577  -1.32462  -0.69984
 Alpha  occ. eigenvalues --   -0.69867  -0.56003  -0.55888  -0.49685  -0.49571
 Alpha virt. eigenvalues --    0.14352   0.14477   0.20407   0.20528   0.54583
 Alpha virt. eigenvalues --    0.54708   0.57460   0.57575   0.68207   0.68355
 Alpha virt. eigenvalues --    0.79194   0.79307   0.80635   0.80760   0.82563

 Mulliken charges:
               1
     1  O   -0.506115
     2  H    0.252310
     3  H    0.253805
     4  O   -0.506009
     5  H    0.251890
     6  H    0.254119
 Sum of Mulliken charges =  -0.00000

 Dipole moment (field-independent basis, Debye):
    X=             -1.0903    Y=             -0.3352    Z=              0.0000  Tot=              1.1407
 Quadrupole moment (field-independent basis, Debye-Ang):
   XX=             -8.4371   YY=             11.4096   ZZ=            -14.7110
   XY=             -2.5960   XZ=              0.0000   YZ=              0.0000

 Normal termination of Gaussian 16 at Sat Aug 27 06:52:09 2022.
