 Gaussian 16, Revision A.03,
 Gaussian 16:  ES64L-G16RevA.03 25-Dec-2016

 ------------------
 #p CCSD(T)/cc-pVTZ
 ------------------

 ------------
 H2O_H2O_2857
 ------------
 Symbolic Z-matrix:
 Charge =  0 Multiplicity = 1

                         Standard orientation:
 ---------------------------------------------------------------------
 Center     Atomic      Atomic             Coordinates (Angstroms)
 Number     Number       Type             X           Y           Z
 ---------------------------------------------------------------------
      1          8           0        0.025266   -2.312960    0.000000
      2          1           0       -0.774840   -2.883342    0.000000
      3          1           0        0.824301   -2.884842    0.000000
      4          8           0        0.025266    2.324693    0.000000
      5          1           0        0.490586    3.190131    0.000000
      6          1           0       -0.944304    2.484193    0.000000
 ---------------------------------------------------------------------

 SCF Done:  E(RHF) =  -152.106072157     A.U. after   10 cycles
 E2 =    -0.5260637835D+00 EUMP2 =    -0.15263213594006D+03
 CCSD(T)
 CCSD(T)= -0.15265937937D+03

 The electronic state is 1-A'.
 Alpha  occ. eigenvalues --  -20.54928 -20.54801  -1.32220  -1.32090  -0.69631
 Alpha  occ. eigenvalues --   -0.69497  -0.55609  -0.55463  -0.49322  -0.49193
 Alpha virt. eigenvalues --    0.14273   0.15101   0.20542   0.20881   0.54699
 Alpha virt. eigenvalues --    0.55243   0.57720   0.57895   0.66335   0.71211
 Alpha virt. eigenvalues --    0.79526   0.79706   0.80954   0.81202   0.82509

 Mulliken charges:
               1
     1  O   -0.500947
     2  H    0.249125
     3  H    0.251846
     4  O   -0.500677
     5  H    0.248540
     6  H    0.252112
 Sum of Mulliken charges =   0.00000

 Dipole moment (field-independent basis, Debye):
    X=             -0.8609    Y=             -0.2082    Z=              0.0000  Tot=              0.8858
 Quadrupole moment (field-independent basis, Debye-Ang):
   XX=             -8.2176   YY=              5.9018   ZZ=            -14.7100
   XY=             -1.3247   XZ=              0.0000   YZ=              0.0000

 Normal termination of Gaussian 16 at Fri Aug 26 16:49:40 2022.
