 Gaussian 16, Revision A.03,
 Gaussian 16:  ES64L-G16RevA.03 25-Dec-2016

 ------------------
 #p CCSD(T)/cc-pVTZ
 ------------------

 -----------
 H2O_H2O_189
 -----------
 Symbolic Z-matrix:
 Charge =  0 Multiplicity = 1

                         Standard orientation:
 ---------------------------------------------------------------------
 Center     Atomic      Atomic             Coordinates (Angstroms)
 Number     Number       Type             X           Y           Z
 ---------------------------------------------------------------------
      1          8           0        0.045408   -0.872608    0.000000
      2          1           0       -0.756645   -1.440249    0.000000
      3          1           0        0.842482   -1.447220    0.000000
      4          8           0        0.045408    0.916902    0.000000
      5          1           0        0.083328    1.898772    0.000000
      6          1           0       -0.895691    0.634343    0.000000
 ---------------------------------------------------------------------

 SCF Done:  E(RHF) =  -152.003877683     A.U. after   11 cycles
 E2 =    -0.5418480463D+00 EUMP2 =    -0.15254572572973D+03
 CCSD(T)
 CCSD(T)= -0.15257177966D+03

 The electronic state is 1-A'.
 Alpha  occ. eigenvalues --  -20.53041 -20.51303  -1.35504  -1.27456  -0.72432
 Alpha  occ. eigenvalues --   -0.68968  -0.58131  -0.51774  -0.44169  -0.42269
 Alpha virt. eigenvalues --    0.14014   0.18765   0.19794   0.23976   0.52907
 Alpha virt. eigenvalues --    0.56778   0.58833   0.64912   0.72839   0.77039
 Alpha virt. eigenvalues --    0.81055   0.82376   0.82401   0.84306   0.88711

 Mulliken charges:
               1
     1  O   -0.384543
     2  H    0.180240
     3  H    0.209725
     4  O   -0.379191
     5  H    0.139032
     6  H    0.234737
 Sum of Mulliken charges =  -0.00000

 Dipole moment (field-independent basis, Debye):
    X=             -1.2455    Y=             -0.9663    Z=              0.0000  Tot=              1.5764
 Quadrupole moment (field-independent basis, Debye-Ang):
   XX=             -9.3131   YY=             -7.4002   ZZ=            -14.6752
   XY=             -0.7617   XZ=              0.0000   YZ=              0.0000

 Normal termination of Gaussian 16 at Fri Aug 26 13:48:34 2022.
