 Gaussian 16, Revision A.03,
 Gaussian 16:  ES64L-G16RevA.03 25-Dec-2016

 ------------------
 #p CCSD(T)/cc-pVTZ
 ------------------

 ------------
 H2O_H2O_2363
 ------------
 Symbolic Z-matrix:
 Charge =  0 Multiplicity = 1

                         Standard orientation:
 ---------------------------------------------------------------------
 Center     Atomic      Atomic             Coordinates (Angstroms)
 Number     Number       Type             X           Y           Z
 ---------------------------------------------------------------------
      1          8           0        0.042975   -2.032364    0.000000
      2          1           0       -0.757624   -2.602055    0.000000
      3          1           0        0.841516   -2.604936    0.000000
      4          8           0        0.042975    2.071121    0.000000
      5          1           0        0.142530    3.048667    0.000000
      6          1           0       -0.914022    1.848269    0.000000
 ---------------------------------------------------------------------

 SCF Done:  E(RHF) =  -152.106343382     A.U. after   10 cycles
 E2 =    -0.5261865953D+00 EUMP2 =    -0.15263252997679D+03
 CCSD(T)
 CCSD(T)= -0.15265975209D+03

 The electronic state is 1-A'.
 Alpha  occ. eigenvalues --  -20.55115 -20.54546  -1.32400  -1.31827  -0.69814
 Alpha  occ. eigenvalues --   -0.69219  -0.55795  -0.55201  -0.49505  -0.48937
 Alpha virt. eigenvalues --    0.13753   0.15660   0.20311   0.21422   0.53822
 Alpha virt. eigenvalues --    0.55161   0.57598   0.58140   0.64705   0.74366
 Alpha virt. eigenvalues --    0.79242   0.80053   0.80172   0.81477   0.83195

 Mulliken charges:
               1
     1  O   -0.500488
     2  H    0.247342
     3  H    0.253703
     4  O   -0.500719
     5  H    0.245480
     6  H    0.254682
 Sum of Mulliken charges =  -0.00000

 Dipole moment (field-independent basis, Debye):
    X=             -1.4545    Y=             -0.7011    Z=              0.0000  Tot=              1.6147
 Quadrupole moment (field-independent basis, Debye-Ang):
   XX=             -8.9758   YY=              2.6362   ZZ=            -14.7116
   XY=             -2.2321   XZ=              0.0000   YZ=              0.0000

 Normal termination of Gaussian 16 at Sat Aug 27 10:08:42 2022.
