 Gaussian 16, Revision A.03,
 Gaussian 16:  ES64L-G16RevA.03 25-Dec-2016

 ------------------
 #p CCSD(T)/cc-pVTZ
 ------------------

 ------------
 H2O_H2O_3942
 ------------
 Symbolic Z-matrix:
 Charge =  0 Multiplicity = 1

                         Standard orientation:
 ---------------------------------------------------------------------
 Center     Atomic      Atomic             Coordinates (Angstroms)
 Number     Number       Type             X           Y           Z
 ---------------------------------------------------------------------
      1          8           0        0.051272   -2.856543    0.000000
      2          1           0       -0.749170   -3.426454    0.000000
      3          1           0        0.849970   -3.428895    0.000000
      4          8           0        0.051272    2.920092    0.000000
      5          1           0       -0.105839    3.890052    0.000000
      6          1           0       -0.815310    2.456907    0.000000
 ---------------------------------------------------------------------

 SCF Done:  E(RHF) =  -152.107268832     A.U. after   10 cycles
 E2 =    -0.5259030811D+00 EUMP2 =    -0.15263317191303D+03
 CCSD(T)
 CCSD(T)= -0.15266039417D+03

 The electronic state is 1-A'.
 Alpha  occ. eigenvalues --  -20.55507 -20.55061  -1.32805  -1.32357  -0.70211
 Alpha  occ. eigenvalues --   -0.69755  -0.56246  -0.55797  -0.49915  -0.49470
 Alpha virt. eigenvalues --    0.14103   0.14644   0.20215   0.20715   0.54345
 Alpha virt. eigenvalues --    0.54822   0.57257   0.57702   0.67827   0.68546
 Alpha virt. eigenvalues --    0.78965   0.79403   0.80396   0.80842   0.82389

 Mulliken charges:
               1
     1  O   -0.508085
     2  H    0.252568
     3  H    0.255523
     4  O   -0.507745
     5  H    0.251271
     6  H    0.256468
 Sum of Mulliken charges =  -0.00000

 Dipole moment (field-independent basis, Debye):
    X=             -1.7595    Y=             -1.1143    Z=              0.0000  Tot=              2.0827
 Quadrupole moment (field-independent basis, Debye-Ang):
   XX=             -9.4576   YY=              6.2111   ZZ=            -14.7118
   XY=             -4.5124   XZ=              0.0000   YZ=              0.0000

 Normal termination of Gaussian 16 at Sat Aug 27 04:27:54 2022.
