 Gaussian 16, Revision A.03,
 Gaussian 16:  ES64L-G16RevA.03 25-Dec-2016

 ------------------
 #p CCSD(T)/cc-pVTZ
 ------------------

 ------------
 H2O_H2O_1709
 ------------
 Symbolic Z-matrix:
 Charge =  0 Multiplicity = 1

                         Standard orientation:
 ---------------------------------------------------------------------
 Center     Atomic      Atomic             Coordinates (Angstroms)
 Number     Number       Type             X           Y           Z
 ---------------------------------------------------------------------
      1          8           0        0.031746   -1.697320    0.000000
      2          1           0       -0.768738   -2.267171    0.000000
      3          1           0        0.830402   -2.269730    0.000000
      4          8           0        0.031746    1.716469    0.000000
      5          1           0        0.380731    2.635008    0.000000
      6          1           0       -0.950327    1.748701    0.000000
 ---------------------------------------------------------------------

 SCF Done:  E(RHF) =  -152.104561581     A.U. after   10 cycles
 E2 =    -0.5267372694D+00 EUMP2 =    -0.15263129885079D+03
 CCSD(T)
 CCSD(T)= -0.15265853614D+03

 The electronic state is 1-A'.
 Alpha  occ. eigenvalues --  -20.54570 -20.54172  -1.31852  -1.31437  -0.69277
 Alpha  occ. eigenvalues --   -0.68844  -0.55482  -0.54361  -0.48966  -0.48519
 Alpha virt. eigenvalues --    0.14019   0.16266   0.20439   0.21749   0.53017
 Alpha virt. eigenvalues --    0.56415   0.57981   0.58541   0.63241   0.76840
 Alpha virt. eigenvalues --    0.78648   0.78812   0.80015   0.81393   0.84662

 Mulliken charges:
               1
     1  O   -0.486159
     2  H    0.239755
     3  H    0.247230
     4  O   -0.486217
     5  H    0.238019
     6  H    0.247371
 Sum of Mulliken charges =  -0.00000

 Dipole moment (field-independent basis, Debye):
    X=             -1.0562    Y=             -0.3569    Z=              0.0000  Tot=              1.1149
 Quadrupole moment (field-independent basis, Debye-Ang):
   XX=             -8.4815   YY=              0.8805   ZZ=            -14.7106
   XY=             -1.0894   XZ=              0.0000   YZ=              0.0000

 Normal termination of Gaussian 16 at Sat Aug 27 06:20:32 2022.
