 Gaussian 16, Revision A.03,
 Gaussian 16:  ES64L-G16RevA.03 25-Dec-2016

 ------------------
 #p CCSD(T)/cc-pVTZ
 ------------------

 ------------
 H2O_H2O_4294
 ------------
 Symbolic Z-matrix:
 Charge =  0 Multiplicity = 1

                         Standard orientation:
 ---------------------------------------------------------------------
 Center     Atomic      Atomic             Coordinates (Angstroms)
 Number     Number       Type             X           Y           Z
 ---------------------------------------------------------------------
      1          8           0        0.054141   -3.035194    0.000000
      2          1           0       -0.746294   -3.605115    0.000000
      3          1           0        0.852846   -3.607537    0.000000
      4          8           0        0.054141    3.112540    0.000000
      5          1           0       -0.228243    4.053691    0.000000
      6          1           0       -0.744563    2.540195    0.000000
 ---------------------------------------------------------------------

 SCF Done:  E(RHF) =  -152.107422839     A.U. after   10 cycles
 E2 =    -0.5258817307D+00 EUMP2 =    -0.15263330457006D+03
 CCSD(T)
 CCSD(T)= -0.15266052409D+03

 The electronic state is 1-A'.
 Alpha  occ. eigenvalues --  -20.55598 -20.55123  -1.32897  -1.32421  -0.70303
 Alpha  occ. eigenvalues --   -0.69820  -0.56345  -0.55866  -0.50009  -0.49534
 Alpha virt. eigenvalues --    0.14058   0.14569   0.20151   0.20666   0.54256
 Alpha virt. eigenvalues --    0.54755   0.57177   0.57653   0.67801   0.68372
 Alpha virt. eigenvalues --    0.78871   0.79338   0.80301   0.80796   0.82251

 Mulliken charges:
               1
     1  O   -0.508987
     2  H    0.253213
     3  H    0.255776
     4  O   -0.508680
     5  H    0.251927
     6  H    0.256751
 Sum of Mulliken charges =  -0.00000

 Dipole moment (field-independent basis, Debye):
    X=             -1.8602    Y=             -1.3530    Z=              0.0000  Tot=              2.3001
 Quadrupole moment (field-independent basis, Debye-Ang):
   XX=             -9.6486   YY=              5.9701   ZZ=            -14.7121
   XY=             -5.3427   XZ=              0.0000   YZ=              0.0000

 Normal termination of Gaussian 16 at Sat Aug 27 06:30:09 2022.
