 Gaussian 16, Revision A.03,
 Gaussian 16:  ES64L-G16RevA.03 25-Dec-2016

 ------------------
 #p CCSD(T)/cc-pVTZ
 ------------------

 ------------
 H2O_H2O_4120
 ------------
 Symbolic Z-matrix:
 Charge =  0 Multiplicity = 1

                         Standard orientation:
 ---------------------------------------------------------------------
 Center     Atomic      Atomic             Coordinates (Angstroms)
 Number     Number       Type             X           Y           Z
 ---------------------------------------------------------------------
      1          8           0        0.055234   -2.938245    0.000000
      2          1           0       -0.745246   -3.508102    0.000000
      3          1           0        0.853894   -3.510650    0.000000
      4          8           0        0.055234    3.022731    0.000000
      5          1           0       -0.288026    3.943426    0.000000
      6          1           0       -0.704375    2.399434    0.000000
 ---------------------------------------------------------------------

 SCF Done:  E(RHF) =  -152.107489180     A.U. after   10 cycles
 E2 =    -0.5258799109D+00 EUMP2 =    -0.15263336909040D+03
 CCSD(T)
 CCSD(T)= -0.15266058690D+03

 The electronic state is 1-A'.
 Alpha  occ. eigenvalues --  -20.55638 -20.55084  -1.32937  -1.32382  -0.70344
 Alpha  occ. eigenvalues --   -0.69780  -0.56389  -0.55829  -0.50049  -0.49496
 Alpha virt. eigenvalues --    0.14000   0.14628   0.20118   0.20727   0.54213
 Alpha virt. eigenvalues --    0.54793   0.57142   0.57693   0.67704   0.68456
 Alpha virt. eigenvalues --    0.78831   0.79375   0.80258   0.80805   0.82264

 Mulliken charges:
               1
     1  O   -0.509385
     2  H    0.253278
     3  H    0.256113
     4  O   -0.509010
     5  H    0.251752
     6  H    0.257251
 Sum of Mulliken charges =  -0.00000

 Dipole moment (field-independent basis, Debye):
    X=             -1.8968    Y=             -1.4800    Z=              0.0000  Tot=              2.4059
 Quadrupole moment (field-independent basis, Debye-Ang):
   XX=             -9.7237   YY=              4.7954   ZZ=            -14.7123
   XY=             -5.3987   XZ=              0.0000   YZ=              0.0000

 Normal termination of Gaussian 16 at Sat Aug 27 05:29:26 2022.
