 Gaussian 16, Revision A.03,
 Gaussian 16:  ES64L-G16RevA.03 25-Dec-2016

 ------------------
 #p CCSD(T)/cc-pVTZ
 ------------------

 ------------
 H2O_H2O_2429
 ------------
 Symbolic Z-matrix:
 Charge =  0 Multiplicity = 1

                         Standard orientation:
 ---------------------------------------------------------------------
 Center     Atomic      Atomic             Coordinates (Angstroms)
 Number     Number       Type             X           Y           Z
 ---------------------------------------------------------------------
      1          8           0        0.014783   -2.091198    0.000000
      2          1           0       -0.785135   -2.661844    0.000000
      3          1           0        0.814007   -2.662816    0.000000
      4          8           0        0.014783    2.095072    0.000000
      5          1           0        0.639751    2.853308    0.000000
      6          1           0       -0.905154    2.440358    0.000000
 ---------------------------------------------------------------------

 SCF Done:  E(RHF) =  -152.105453711     A.U. after   10 cycles
 E2 =    -0.5262024803D+00 EUMP2 =    -0.15263165619153D+03
 CCSD(T)
 CCSD(T)= -0.15265890415D+03

 The electronic state is 1-A'.
 Alpha  occ. eigenvalues --  -20.54690 -20.54638  -1.31977  -1.31923  -0.69392
 Alpha  occ. eigenvalues --   -0.69336  -0.55413  -0.55170  -0.49079  -0.49019
 Alpha virt. eigenvalues --    0.14220   0.15448   0.20609   0.21035   0.54509
 Alpha virt. eigenvalues --    0.55787   0.57851   0.58065   0.63693   0.73708
 Alpha virt. eigenvalues --    0.79581   0.80056   0.81009   0.81302   0.81968

 Mulliken charges:
               1
     1  O   -0.496701
     2  H    0.247324
     3  H    0.249409
     4  O   -0.496572
     5  H    0.246997
     6  H    0.249543
 Sum of Mulliken charges =  -0.00000

 Dipole moment (field-independent basis, Debye):
    X=             -0.5011    Y=             -0.0696    Z=              0.0000  Tot=              0.5059
 Quadrupole moment (field-independent basis, Debye-Ang):
   XX=             -7.9659   YY=              4.4723   ZZ=            -14.7096
   XY=             -0.6268   XZ=              0.0000   YZ=              0.0000

 Normal termination of Gaussian 16 at Sat Aug 27 10:30:48 2022.
