 Gaussian 16, Revision A.03,
 Gaussian 16:  ES64L-G16RevA.03 25-Dec-2016

 ------------------
 #p CCSD(T)/cc-pVTZ
 ------------------

 ------------
 H2O_H2O_4389
 ------------
 Symbolic Z-matrix:
 Charge =  0 Multiplicity = 1

                         Standard orientation:
 ---------------------------------------------------------------------
 Center     Atomic      Atomic             Coordinates (Angstroms)
 Number     Number       Type             X           Y           Z
 ---------------------------------------------------------------------
      1          8           0        0.045339   -3.106174    0.000000
      2          1           0       -0.754944   -3.676308    0.000000
      3          1           0        0.844197   -3.678302    0.000000
      4          8           0        0.045339    3.150750    0.000000
      5          1           0        0.080202    4.132734    0.000000
      6          1           0       -0.894876    2.865263    0.000000
 ---------------------------------------------------------------------

 SCF Done:  E(RHF) =  -152.107153346     A.U. after   10 cycles
 E2 =    -0.5259031237D+00 EUMP2 =    -0.15263305646984D+03
 CCSD(T)
 CCSD(T)= -0.15266028190D+03

 The electronic state is 1-A'.
 Alpha  occ. eigenvalues --  -20.55423 -20.55159  -1.32720  -1.32455  -0.70127
 Alpha  occ. eigenvalues --   -0.69857  -0.56156  -0.55891  -0.49830  -0.49566
 Alpha virt. eigenvalues --    0.14226   0.14502   0.20293   0.20574   0.54437
 Alpha virt. eigenvalues --    0.54720   0.57334   0.57599   0.68038   0.68337
 Alpha virt. eigenvalues --    0.79050   0.79310   0.80486   0.80770   0.82414

 Mulliken charges:
               1
     1  O   -0.507383
     2  H    0.252643
     3  H    0.254740
     4  O   -0.507191
     5  H    0.251871
     6  H    0.255319
 Sum of Mulliken charges =  -0.00000

 Dipole moment (field-independent basis, Debye):
    X=             -1.5579    Y=             -0.7788    Z=              0.0000  Tot=              1.7417
 Quadrupole moment (field-independent basis, Debye-Ang):
   XX=             -9.0968   YY=              9.3440   ZZ=            -14.7114
   XY=             -4.0903   XZ=              0.0000   YZ=              0.0000

 Normal termination of Gaussian 16 at Sat Aug 27 07:03:15 2022.
