 Gaussian 16, Revision A.03,
 Gaussian 16:  ES64L-G16RevA.03 25-Dec-2016

 ------------------
 #p CCSD(T)/cc-pVTZ
 ------------------

 ----------
 H2O_H2O_66
 ----------
 Symbolic Z-matrix:
 Charge =  0 Multiplicity = 1

                         Standard orientation:
 ---------------------------------------------------------------------
 Center     Atomic      Atomic             Coordinates (Angstroms)
 Number     Number       Type             X           Y           Z
 ---------------------------------------------------------------------
      1          8           0        0.049608   -0.799442    0.000000
      2          1           0       -0.752891   -1.366453    0.000000
      3          1           0        0.846230   -1.374679    0.000000
      4          8           0        0.049608    0.856045    0.000000
      5          1           0       -0.040189    1.834535    0.000000
      6          1           0       -0.846874    0.453769    0.000000
 ---------------------------------------------------------------------

 SCF Done:  E(RHF) =  -151.937424501     A.U. after   12 cycles
 E2 =    -0.5490694437D+00 EUMP2 =    -0.15248649394439D+03
 CCSD(T)
 CCSD(T)= -0.15251154860D+03

 The electronic state is 1-A'.
 Alpha  occ. eigenvalues --  -20.53606 -20.50864  -1.38994  -1.26505  -0.75536
 Alpha  occ. eigenvalues --   -0.70938  -0.56502  -0.54012  -0.43410  -0.39169
 Alpha virt. eigenvalues --    0.13708   0.19006   0.19759   0.24290   0.51694
 Alpha virt. eigenvalues --    0.56248   0.59491   0.66355   0.73316   0.76926
 Alpha virt. eigenvalues --    0.80318   0.81432   0.83459   0.83894   0.89042

 Mulliken charges:
               1
     1  O   -0.324960
     2  H    0.150054
     3  H    0.195960
     4  O   -0.363814
     5  H    0.101960
     6  H    0.240800
 Sum of Mulliken charges =  -0.00000

 Dipole moment (field-independent basis, Debye):
    X=             -1.2939    Y=             -1.3110    Z=              0.0000  Tot=              1.8420
 Quadrupole moment (field-independent basis, Debye-Ang):
   XX=             -9.5585   YY=             -8.7514   ZZ=            -14.6116
   XY=             -0.8568   XZ=              0.0000   YZ=              0.0000

 Normal termination of Gaussian 16 at Fri Aug 26 12:25:18 2022.
