 Gaussian 16, Revision A.03,
 Gaussian 16:  ES64L-G16RevA.03 25-Dec-2016

 ------------------
 #p CCSD(T)/cc-pVTZ
 ------------------

 ------------
 H2O_H2O_2601
 ------------
 Symbolic Z-matrix:
 Charge =  0 Multiplicity = 1

                         Standard orientation:
 ---------------------------------------------------------------------
 Center     Atomic      Atomic             Coordinates (Angstroms)
 Number     Number       Type             X           Y           Z
 ---------------------------------------------------------------------
      1          8           0        0.003735   -2.186241    0.000000
      2          1           0       -0.795920   -2.757256    0.000000
      3          1           0        0.803222   -2.757491    0.000000
      4          8           0        0.003735    2.186485    0.000000
      5          1           0        0.764333    2.808576    0.000000
      6          1           0       -0.831402    2.704223    0.000000
 ---------------------------------------------------------------------

 SCF Done:  E(RHF) =  -152.105582296     A.U. after   10 cycles
 E2 =    -0.5261434747D+00 EUMP2 =    -0.15263172577055D+03
 CCSD(T)
 CCSD(T)= -0.15265897590D+03

 The electronic state is 1-A'.
 Alpha  occ. eigenvalues --  -20.54720 -20.54717  -1.32010  -1.32004  -0.69424
 Alpha  occ. eigenvalues --   -0.69417  -0.55437  -0.55280  -0.49115  -0.49097
 Alpha virt. eigenvalues --    0.14313   0.15277   0.20635   0.20933   0.54727
 Alpha virt. eigenvalues --    0.55585   0.57836   0.57994   0.64773   0.72711
 Alpha virt. eigenvalues --    0.79624   0.79906   0.81172   0.81292   0.82008

 Mulliken charges:
               1
     1  O   -0.497855
     2  H    0.248694
     3  H    0.249163
     4  O   -0.497847
     5  H    0.248638
     6  H    0.249208
 Sum of Mulliken charges =   0.00000

 Dipole moment (field-independent basis, Debye):
    X=             -0.1269    Y=             -0.0043    Z=              0.0000  Tot=              0.1270
 Quadrupole moment (field-independent basis, Debye-Ang):
   XX=             -7.8344   YY=              5.3745   ZZ=            -14.7095
   XY=             -0.1658   XZ=              0.0000   YZ=              0.0000

 Normal termination of Gaussian 16 at Fri Aug 26 14:14:17 2022.
