 Gaussian 16, Revision A.03,
 Gaussian 16:  ES64L-G16RevA.03 25-Dec-2016

 ------------------
 #p CCSD(T)/cc-pVTZ
 ------------------

 ------------
 H2O_H2O_3458
 ------------
 Symbolic Z-matrix:
 Charge =  0 Multiplicity = 1

                         Standard orientation:
 ---------------------------------------------------------------------
 Center     Atomic      Atomic             Coordinates (Angstroms)
 Number     Number       Type             X           Y           Z
 ---------------------------------------------------------------------
      1          8           0        0.028564   -2.630152    0.000000
      2          1           0       -0.771539   -3.200538    0.000000
      3          1           0        0.827602   -3.202029    0.000000
      4          8           0        0.028564    2.645402    0.000000
      5          1           0        0.436281    3.539423    0.000000
      6          1           0       -0.949363    2.741143    0.000000
 ---------------------------------------------------------------------

 SCF Done:  E(RHF) =  -152.106542955     A.U. after   10 cycles
 E2 =    -0.5259781763D+00 EUMP2 =    -0.15263252113115D+03
 CCSD(T)
 CCSD(T)= -0.15265975826D+03

 The electronic state is 1-A'.
 Alpha  occ. eigenvalues --  -20.55109 -20.54982  -1.32403  -1.32275  -0.69812
 Alpha  occ. eigenvalues --   -0.69680  -0.55810  -0.55682  -0.49509  -0.49381
 Alpha virt. eigenvalues --    0.14380   0.14732   0.20495   0.20690   0.54727
 Alpha virt. eigenvalues --    0.54922   0.57596   0.57735   0.67915   0.69128
 Alpha virt. eigenvalues --    0.79369   0.79495   0.80807   0.80967   0.82746

 Mulliken charges:
               1
     1  O   -0.503793
     2  H    0.250819
     3  H    0.252977
     4  O   -0.503601
     5  H    0.250286
     6  H    0.253311
 Sum of Mulliken charges =  -0.00000

 Dipole moment (field-independent basis, Debye):
    X=             -0.9777    Y=             -0.2682    Z=              0.0000  Tot=              1.0138
 Quadrupole moment (field-independent basis, Debye-Ang):
   XX=             -8.3217   YY=              8.1359   ZZ=            -14.7104
   XY=             -1.8365   XZ=              0.0000   YZ=              0.0000

 Normal termination of Gaussian 16 at Fri Aug 26 22:30:48 2022.
