 Gaussian 16, Revision A.03,
 Gaussian 16:  ES64L-G16RevA.03 25-Dec-2016

 ------------------
 #p CCSD(T)/cc-pVTZ
 ------------------

 -----------
 H2O_H2O_638
 -----------
 Symbolic Z-matrix:
 Charge =  0 Multiplicity = 1

                         Standard orientation:
 ---------------------------------------------------------------------
 Center     Atomic      Atomic             Coordinates (Angstroms)
 Number     Number       Type             X           Y           Z
 ---------------------------------------------------------------------
      1          8           0        0.043003   -1.115012    0.000000
      2          1           0       -0.758425   -1.683536    0.000000
      3          1           0        0.840709   -1.688747    0.000000
      4          8           0        0.043003    1.153644    0.000000
      5          1           0        0.143983    2.131043    0.000000
      6          1           0       -0.914318    0.932185    0.000000
 ---------------------------------------------------------------------

 SCF Done:  E(RHF) =  -152.086139690     A.U. after   11 cycles
 E2 =    -0.5311164170D+00 EUMP2 =    -0.15261725610740D+03
 CCSD(T)
 CCSD(T)= -0.15264437929D+03

 The electronic state is 1-A'.
 Alpha  occ. eigenvalues --  -20.53907 -20.52525  -1.32185  -1.29626  -0.69463
 Alpha  occ. eigenvalues --   -0.67777  -0.57188  -0.49796  -0.49370  -0.46433
 Alpha virt. eigenvalues --    0.14085   0.17737   0.20171   0.23489   0.53152
 Alpha virt. eigenvalues --    0.57781   0.58258   0.61873   0.71081   0.75681
 Alpha virt. eigenvalues --    0.78668   0.81100   0.83400   0.85516   0.87727

 Mulliken charges:
               1
     1  O   -0.459663
     2  H    0.221170
     3  H    0.240107
     4  O   -0.441875
     5  H    0.197673
     6  H    0.242588
 Sum of Mulliken charges =  -0.00000

 Dipole moment (field-independent basis, Debye):
    X=             -1.3032    Y=             -0.7678    Z=              0.0000  Tot=              1.5126
 Quadrupole moment (field-independent basis, Debye-Ang):
   XX=             -9.1056   YY=             -4.3642   ZZ=            -14.7265
   XY=             -0.9492   XZ=              0.0000   YZ=              0.0000

 Normal termination of Gaussian 16 at Fri Aug 26 18:34:09 2022.
