 Gaussian 16, Revision A.03,
 Gaussian 16:  ES64L-G16RevA.03 25-Dec-2016

 ------------------
 #p CCSD(T)/cc-pVTZ
 ------------------

 ------------
 H2O_H2O_4035
 ------------
 Symbolic Z-matrix:
 Charge =  0 Multiplicity = 1

                         Standard orientation:
 ---------------------------------------------------------------------
 Center     Atomic      Atomic             Coordinates (Angstroms)
 Number     Number       Type             X           Y           Z
 ---------------------------------------------------------------------
      1          8           0        0.034780   -2.931459    0.000000
      2          1           0       -0.765371   -3.501778    0.000000
      3          1           0        0.833770   -3.503404    0.000000
      4          8           0        0.034780    2.954993    0.000000
      5          1           0        0.322396    3.894558    0.000000
      6          1           0       -0.947279    2.922353    0.000000
 ---------------------------------------------------------------------

 SCF Done:  E(RHF) =  -152.106881527     A.U. after   10 cycles
 E2 =    -0.5259322558D+00 EUMP2 =    -0.15263281378307D+03
 CCSD(T)
 CCSD(T)= -0.15266004470D+03

 The electronic state is 1-A'.
 Alpha  occ. eigenvalues --  -20.55263 -20.55106  -1.32560  -1.32401  -0.69967
 Alpha  occ. eigenvalues --   -0.69805  -0.55982  -0.55825  -0.49667  -0.49510
 Alpha virt. eigenvalues --    0.14348   0.14547   0.20411   0.20587   0.54598
 Alpha virt. eigenvalues --    0.54774   0.57472   0.57632   0.68176   0.68481
 Alpha virt. eigenvalues --    0.79212   0.79367   0.80653   0.80825   0.82586

 Mulliken charges:
               1
     1  O   -0.505778
     2  H    0.251925
     3  H    0.253853
     4  O   -0.505617
     5  H    0.251367
     6  H    0.254250
 Sum of Mulliken charges =  -0.00000

 Dipole moment (field-independent basis, Debye):
    X=             -1.1936    Y=             -0.4119    Z=              0.0000  Tot=              1.2627
 Quadrupole moment (field-independent basis, Debye-Ang):
   XX=             -8.5654   YY=              9.8136   ZZ=            -14.7109
   XY=             -2.6874   XZ=              0.0000   YZ=              0.0000

 Normal termination of Gaussian 16 at Sat Aug 27 05:00:38 2022.
