 Gaussian 16, Revision A.03,
 Gaussian 16:  ES64L-G16RevA.03 25-Dec-2016

 ------------------
 #p CCSD(T)/cc-pVTZ
 ------------------

 ------------
 H2O_H2O_2982
 ------------
 Symbolic Z-matrix:
 Charge =  0 Multiplicity = 1

                         Standard orientation:
 ---------------------------------------------------------------------
 Center     Atomic      Atomic             Coordinates (Angstroms)
 Number     Number       Type             X           Y           Z
 ---------------------------------------------------------------------
      1          8           0        0.025266   -2.379439    0.000000
      2          1           0       -0.774825   -2.949842    0.000000
      3          1           0        0.824316   -2.951300    0.000000
      4          8           0        0.025266    2.391173    0.000000
      5          1           0        0.490563    3.256623    0.000000
      6          1           0       -0.944308    2.550648    0.000000
 ---------------------------------------------------------------------

 SCF Done:  E(RHF) =  -152.106174405     A.U. after   10 cycles
 E2 =    -0.5260406085D+00 EUMP2 =    -0.15263221501311D+03
 CCSD(T)
 CCSD(T)= -0.15265945761D+03

 The electronic state is 1-A'.
 Alpha  occ. eigenvalues --  -20.54964 -20.54844  -1.32256  -1.32135  -0.69667
 Alpha  occ. eigenvalues --   -0.69541  -0.55647  -0.55518  -0.49359  -0.49238
 Alpha virt. eigenvalues --    0.14312   0.15006   0.20539   0.20831   0.54738
 Alpha virt. eigenvalues --    0.55156   0.57698   0.57856   0.66838   0.70607
 Alpha virt. eigenvalues --    0.79503   0.79648   0.80924   0.81158   0.82607

 Mulliken charges:
               1
     1  O   -0.501596
     2  H    0.249545
     3  H    0.252065
     4  O   -0.501352
     5  H    0.248995
     6  H    0.252342
 Sum of Mulliken charges =  -0.00000

 Dipole moment (field-independent basis, Debye):
    X=             -0.8619    Y=             -0.2077    Z=              0.0000  Tot=              0.8866
 Quadrupole moment (field-independent basis, Debye-Ang):
   XX=             -8.2158   YY=              6.4141   ZZ=            -14.7101
   XY=             -1.3812   XZ=              0.0000   YZ=              0.0000

 Normal termination of Gaussian 16 at Fri Aug 26 18:06:48 2022.
