 Gaussian 16, Revision A.03,
 Gaussian 16:  ES64L-G16RevA.03 25-Dec-2016

 ------------------
 #p CCSD(T)/cc-pVTZ
 ------------------

 ------------
 H2O_H2O_4963
 ------------
 Symbolic Z-matrix:
 Charge =  0 Multiplicity = 1

                         Standard orientation:
 ---------------------------------------------------------------------
 Center     Atomic      Atomic             Coordinates (Angstroms)
 Number     Number       Type             X           Y           Z
 ---------------------------------------------------------------------
      1          8           0        0.042961   -3.415107    0.000000
      2          1           0       -0.757224   -3.985378    0.000000
      3          1           0        0.841917   -3.987099    0.000000
      4          8           0        0.042961    3.453926    0.000000
      5          1           0        0.141807    4.431543    0.000000
      6          1           0       -0.913874    3.230379    0.000000
 ---------------------------------------------------------------------

 SCF Done:  E(RHF) =  -152.107198428     A.U. after   10 cycles
 E2 =    -0.5258925271D+00 EUMP2 =    -0.15263309095476D+03
 CCSD(T)
 CCSD(T)= -0.15266031585D+03

 The electronic state is 1-A'.
 Alpha  occ. eigenvalues --  -20.55435 -20.55246  -1.32733  -1.32543  -0.70139
 Alpha  occ. eigenvalues --   -0.69947  -0.56171  -0.55981  -0.49843  -0.49654
 Alpha virt. eigenvalues --    0.14225   0.14413   0.20288   0.20486   0.54425
 Alpha virt. eigenvalues --    0.54626   0.57325   0.57514   0.68035   0.68227
 Alpha virt. eigenvalues --    0.79036   0.79223   0.80472   0.80675   0.82396

 Mulliken charges:
               1
     1  O   -0.507636
     2  H    0.253058
     3  H    0.254578
     4  O   -0.507518
     5  H    0.252518
     6  H    0.255000
 Sum of Mulliken charges =  -0.00000

 Dipole moment (field-independent basis, Debye):
    X=             -1.4780    Y=             -0.6762    Z=              0.0000  Tot=              1.6253
 Quadrupole moment (field-independent basis, Debye-Ang):
   XX=             -8.9641   YY=             11.8803   ZZ=            -14.7114
   XY=             -4.2469   XZ=              0.0000   YZ=              0.0000

 Normal termination of Gaussian 16 at Sat Aug 27 10:21:59 2022.
