 Gaussian 16, Revision A.03,
 Gaussian 16:  ES64L-G16RevA.03 25-Dec-2016

 ------------------
 #p CCSD(T)/cc-pVTZ
 ------------------

 -----------
 H2O_H2O_699
 -----------
 Symbolic Z-matrix:
 Charge =  0 Multiplicity = 1

                         Standard orientation:
 ---------------------------------------------------------------------
 Center     Atomic      Atomic             Coordinates (Angstroms)
 Number     Number       Type             X           Y           Z
 ---------------------------------------------------------------------
      1          8           0        0.057355   -1.100812    0.000000
      2          1           0       -0.744634   -1.668543    0.000000
      3          1           0        0.854494   -1.675335    0.000000
      4          8           0        0.057355    1.214553    0.000000
      5          1           0       -0.510376    2.016542    0.000000
      6          1           0       -0.517167    0.417413    0.000000
 ---------------------------------------------------------------------

 SCF Done:  E(RHF) =  -152.090665079     A.U. after   11 cycles
 E2 =    -0.5325589760D+00 EUMP2 =    -0.15262322405454D+03
 CCSD(T)
 CCSD(T)= -0.15264982278D+03

 The electronic state is 1-A'.
 Alpha  occ. eigenvalues --  -20.57403 -20.50554  -1.35886  -1.28358  -0.73143
 Alpha  occ. eigenvalues --   -0.69481  -0.55341  -0.52636  -0.51939  -0.45368
 Alpha virt. eigenvalues --    0.12716   0.18684   0.19131   0.27787   0.49477
 Alpha virt. eigenvalues --    0.55195   0.61550   0.64444   0.71429   0.73453
 Alpha virt. eigenvalues --    0.75795   0.81887   0.83344   0.83464   0.86735

 Mulliken charges:
               1
     1  O   -0.430774
     2  H    0.227268
     3  H    0.251068
     4  O   -0.530236
     5  H    0.212767
     6  H    0.269908
 Sum of Mulliken charges =  -0.00000

 Dipole moment (field-independent basis, Debye):
    X=             -1.7562    Y=             -2.5978    Z=              0.0000  Tot=              3.1358
 Quadrupole moment (field-independent basis, Debye-Ang):
   XX=             -9.8390   YY=             -6.1888   ZZ=            -14.6895
   XY=             -2.6314   XZ=              0.0000   YZ=              0.0000

 Normal termination of Gaussian 16 at Fri Aug 26 19:12:23 2022.
