 Gaussian 16, Revision A.03,
 Gaussian 16:  ES64L-G16RevA.03 25-Dec-2016

 ------------------
 #p CCSD(T)/cc-pVTZ
 ------------------

 ------------
 H2O_H2O_4375
 ------------
 Symbolic Z-matrix:
 Charge =  0 Multiplicity = 1

                         Standard orientation:
 ---------------------------------------------------------------------
 Center     Atomic      Atomic             Coordinates (Angstroms)
 Number     Number       Type             X           Y           Z
 ---------------------------------------------------------------------
      1          8           0        0.000000   -0.000000    3.130383
      2          1           0        0.000000    0.799571    3.701515
      3          1           0       -0.000000   -0.799571    3.701515
      4          8           0        0.000000   -0.000000   -3.130383
      5          1           0       -0.000000   -0.799571   -3.701515
      6          1           0        0.000000    0.799571   -3.701515
 ---------------------------------------------------------------------

 SCF Done:  E(RHF) =  -152.106795041     A.U. after   10 cycles
 E2 =    -0.5259328920D+00 EUMP2 =    -0.15263272793332D+03
 CCSD(T)
 CCSD(T)= -0.15265996109D+03

 The electronic state is 1-AG.
 Alpha  occ. eigenvalues --  -20.55179 -20.55179  -1.32474  -1.32474  -0.69882
 Alpha  occ. eigenvalues --   -0.69882  -0.55894  -0.55893  -0.49581  -0.49581
 Alpha virt. eigenvalues --    0.14433   0.14462   0.20485   0.20497   0.54684
 Alpha virt. eigenvalues --    0.54691   0.57549   0.57555   0.68312   0.68377
 Alpha virt. eigenvalues --    0.79297   0.79298   0.80742   0.80742   0.82670

 Mulliken charges:
               1
     1  O   -0.505248
     2  H    0.252624
     3  H    0.252624
     4  O   -0.505248
     5  H    0.252624
     6  H    0.252624
 Sum of Mulliken charges =  -0.00000

 Dipole moment (field-independent basis, Debye):
    X=             -0.0000    Y=              0.0000    Z=              0.0000  Tot=              0.0000
 Quadrupole moment (field-independent basis, Debye-Ang):
   XX=            -14.7106   YY=             -7.8033   ZZ=             13.0086
   XY=              0.0000   XZ=              0.0000   YZ=             -0.0000

 \MP4DQ=-152.6418539\MP4SDQ=-152.6449141\CCSD=-152.6443257\CCSD(T)=-152
 Normal termination of Gaussian 16 at Sat Aug 27 06:57:41 2022.
