 Gaussian 16, Revision A.03,
 Gaussian 16:  ES64L-G16RevA.03 25-Dec-2016

 ------------------
 #p CCSD(T)/cc-pVTZ
 ------------------

 -----------
 H2O_H2O_998
 -----------
 Symbolic Z-matrix:
 Charge =  0 Multiplicity = 1

                         Standard orientation:
 ---------------------------------------------------------------------
 Center     Atomic      Atomic             Coordinates (Angstroms)
 Number     Number       Type             X           Y           Z
 ---------------------------------------------------------------------
      1          8           0        0.057189   -1.264388    0.000000
      2          1           0       -0.744503   -1.832539    0.000000
      3          1           0        0.854628   -1.838494    0.000000
      4          8           0        0.057189    1.370719    0.000000
      5          1           0       -0.457312    2.207853    0.000000
      6          1           0       -0.567842    0.612535    0.000000
 ---------------------------------------------------------------------

 SCF Done:  E(RHF) =  -152.105379932     A.U. after   10 cycles
 E2 =    -0.5292442938D+00 EUMP2 =    -0.15263462422551D+03
 CCSD(T)
 CCSD(T)= -0.15266158359D+03

 The electronic state is 1-A'.
 Alpha  occ. eigenvalues --  -20.56834 -20.52226  -1.34442  -1.29668  -0.71789
 Alpha  occ. eigenvalues --   -0.68111  -0.56897  -0.53223  -0.51490  -0.46761
 Alpha virt. eigenvalues --    0.12957   0.17999   0.19393   0.26491   0.50890
 Alpha virt. eigenvalues --    0.56094   0.59101   0.60510   0.70908   0.73674
 Alpha virt. eigenvalues --    0.74788   0.80568   0.82642   0.83678   0.86596

 Mulliken charges:
               1
     1  O   -0.473807
     2  H    0.239552
     3  H    0.256653
     4  O   -0.517793
     5  H    0.226621
     6  H    0.268774
 Sum of Mulliken charges =  -0.00000

 Dipole moment (field-independent basis, Debye):
    X=             -1.8181    Y=             -2.2228    Z=              0.0000  Tot=              2.8716
 Quadrupole moment (field-independent basis, Debye-Ang):
   XX=             -9.8506   YY=             -4.8682   ZZ=            -14.7225
   XY=             -2.7999   XZ=              0.0000   YZ=              0.0000

 Normal termination of Gaussian 16 at Sat Aug 27 01:15:59 2022.
