 Gaussian 16, Revision A.03,
 Gaussian 16:  ES64L-G16RevA.03 25-Dec-2016

 ------------------
 #p CCSD(T)/cc-pVTZ
 ------------------

 ------------
 H2O_H2O_2203
 ------------
 Symbolic Z-matrix:
 Charge =  0 Multiplicity = 1

                         Standard orientation:
 ---------------------------------------------------------------------
 Center     Atomic      Atomic             Coordinates (Angstroms)
 Number     Number       Type             X           Y           Z
 ---------------------------------------------------------------------
      1          8           0        0.011143   -1.972453    0.000000
      2          1           0       -0.788706   -2.543196    0.000000
      3          1           0        0.810436   -2.543973    0.000000
      4          8           0        0.011143    1.974637    0.000000
      5          1           0        0.684276    2.690456    0.000000
      6          1           0       -0.884291    2.379241    0.000000
 ---------------------------------------------------------------------

 SCF Done:  E(RHF) =  -152.105072214     A.U. after   10 cycles
 E2 =    -0.5263197146D+00 EUMP2 =    -0.15263139192832D+03
 CCSD(T)
 CCSD(T)= -0.15265864031D+03

 The electronic state is 1-A'.
 Alpha  occ. eigenvalues --  -20.54565 -20.54532  -1.31850  -1.31812  -0.69268
 Alpha  occ. eigenvalues --   -0.69228  -0.55350  -0.54939  -0.48960  -0.48895
 Alpha virt. eigenvalues --    0.14194   0.15663   0.20619   0.21150   0.54247
 Alpha virt. eigenvalues --    0.56254   0.57903   0.58179   0.62161   0.74836
 Alpha virt. eigenvalues --    0.79496   0.80364   0.80655   0.81201   0.82143

 Mulliken charges:
               1
     1  O   -0.493576
     2  H    0.245894
     3  H    0.247716
     4  O   -0.493516
     5  H    0.245646
     6  H    0.247835
 Sum of Mulliken charges =  -0.00000

 Dipole moment (field-independent basis, Debye):
    X=             -0.3762    Y=             -0.0397    Z=              0.0000  Tot=              0.3783
 Quadrupole moment (field-independent basis, Debye-Ang):
   XX=             -7.9147   YY=              3.5629   ZZ=            -14.7094
   XY=             -0.4222   XZ=              0.0000   YZ=              0.0000

 Normal termination of Gaussian 16 at Sat Aug 27 09:11:36 2022.
