 Gaussian 16, Revision A.03,
 Gaussian 16:  ES64L-G16RevA.03 25-Dec-2016

 ------------------
 #p CCSD(T)/cc-pVTZ
 ------------------

 ------------
 H2O_H2O_3756
 ------------
 Symbolic Z-matrix:
 Charge =  0 Multiplicity = 1

                         Standard orientation:
 ---------------------------------------------------------------------
 Center     Atomic      Atomic             Coordinates (Angstroms)
 Number     Number       Type             X           Y           Z
 ---------------------------------------------------------------------
      1          8           0        0.021859   -2.793279    0.000000
      2          1           0       -0.778096   -3.363873    0.000000
      3          1           0        0.821046   -3.364948    0.000000
      4          8           0        0.021859    2.801944    0.000000
      5          1           0        0.542565    3.635234    0.000000
      6          1           0       -0.935262    3.024263    0.000000
 ---------------------------------------------------------------------

 SCF Done:  E(RHF) =  -152.106617915     A.U. after   10 cycles
 E2 =    -0.5259607345D+00 EUMP2 =    -0.15263257864927D+03
 CCSD(T)
 CCSD(T)= -0.15265981486D+03

 The electronic state is 1-A'.
 Alpha  occ. eigenvalues --  -20.55121 -20.55058  -1.32416  -1.32352  -0.69824
 Alpha  occ. eigenvalues --   -0.69758  -0.55826  -0.55762  -0.49522  -0.49458
 Alpha virt. eigenvalues --    0.14436   0.14606   0.20509   0.20605   0.54736
 Alpha virt. eigenvalues --    0.54826   0.57592   0.57664   0.68201   0.68717
 Alpha virt. eigenvalues --    0.79356   0.79419   0.80801   0.80876   0.82736

 Mulliken charges:
               1
     1  O   -0.504219
     2  H    0.251410
     3  H    0.252809
     4  O   -0.504129
     5  H    0.251093
     6  H    0.253036
 Sum of Mulliken charges =  -0.00000

 Dipole moment (field-independent basis, Debye):
    X=             -0.7493    Y=             -0.1519    Z=              0.0000  Tot=              0.7645
 Quadrupole moment (field-independent basis, Debye-Ang):
   XX=             -8.1076   YY=              9.7787   ZZ=            -14.7104
   XY=             -1.4784   XZ=              0.0000   YZ=              0.0000

 Normal termination of Gaussian 16 at Sat Aug 27 03:03:45 2022.
