 Gaussian 16, Revision A.03,
 Gaussian 16:  ES64L-G16RevA.03 25-Dec-2016

 ------------------
 #p CCSD(T)/cc-pVTZ
 ------------------

 -----------
 H2O_H2O_935
 -----------
 Symbolic Z-matrix:
 Charge =  0 Multiplicity = 1

                         Standard orientation:
 ---------------------------------------------------------------------
 Center     Atomic      Atomic             Coordinates (Angstroms)
 Number     Number       Type             X           Y           Z
 ---------------------------------------------------------------------
      1          8           0        0.034795   -1.282813    0.000000
      2          1           0       -0.766094   -1.852095    0.000000
      3          1           0        0.833044   -1.855792    0.000000
      4          8           0        0.034795    1.306257    0.000000
      5          1           0        0.323628    2.245450    0.000000
      6          1           0       -0.947306    1.274888    0.000000
 ---------------------------------------------------------------------

 SCF Done:  E(RHF) =  -152.097419344     A.U. after   11 cycles
 E2 =    -0.5287357304D+00 EUMP2 =    -0.15262615507403D+03
 CCSD(T)
 CCSD(T)= -0.15265341248D+03

 The electronic state is 1-A'.
 Alpha  occ. eigenvalues --  -20.53930 -20.53216  -1.31528  -1.30425  -0.68900
 Alpha  occ. eigenvalues --   -0.67978  -0.56478  -0.51576  -0.48755  -0.47318
 Alpha virt. eigenvalues --    0.14209   0.17239   0.20373   0.22745   0.52642
 Alpha virt. eigenvalues --    0.58271   0.58465   0.60829   0.70193   0.76331
 Alpha virt. eigenvalues --    0.76901   0.78308   0.83502   0.83830   0.85922

 Mulliken charges:
               1
     1  O   -0.470194
     2  H    0.227977
     3  H    0.242240
     4  O   -0.457732
     5  H    0.217805
     6  H    0.239903
 Sum of Mulliken charges =  -0.00000

 Dipole moment (field-independent basis, Debye):
    X=             -1.0984    Y=             -0.4539    Z=              0.0000  Tot=              1.1885
 Quadrupole moment (field-independent basis, Debye-Ang):
   XX=             -8.6853   YY=             -2.6511   ZZ=            -14.7213
   XY=             -0.7788   XZ=              0.0000   YZ=              0.0000

 Normal termination of Gaussian 16 at Fri Aug 26 21:19:35 2022.
