 Gaussian 16, Revision A.03,
 Gaussian 16:  ES64L-G16RevA.03 25-Dec-2016

 ------------------
 #p CCSD(T)/cc-pVTZ
 ------------------

 ------------
 H2O_H2O_3656
 ------------
 Symbolic Z-matrix:
 Charge =  0 Multiplicity = 1

                         Standard orientation:
 ---------------------------------------------------------------------
 Center     Atomic      Atomic             Coordinates (Angstroms)
 Number     Number       Type             X           Y           Z
 ---------------------------------------------------------------------
      1          8           0        0.021859   -2.740096    0.000000
      2          1           0       -0.778103   -3.310679    0.000000
      3          1           0        0.821038   -3.311776    0.000000
      4          8           0        0.021859    2.748761    0.000000
      5          1           0        0.542576    3.582044    0.000000
      6          1           0       -0.935259    2.971091    0.000000
 ---------------------------------------------------------------------

 SCF Done:  E(RHF) =  -152.106567778     A.U. after   10 cycles
 E2 =    -0.5259679826D+00 EUMP2 =    -0.15263253576092D+03
 CCSD(T)
 CCSD(T)= -0.15265977287D+03

 The electronic state is 1-A'.
 Alpha  occ. eigenvalues --  -20.55101 -20.55035  -1.32396  -1.32329  -0.69804
 Alpha  occ. eigenvalues --   -0.69735  -0.55804  -0.55737  -0.49501  -0.49435
 Alpha virt. eigenvalues --    0.14435   0.14641   0.20518   0.20625   0.54751
 Alpha virt. eigenvalues --    0.54854   0.57607   0.57684   0.68145   0.68831
 Alpha virt. eigenvalues --    0.79376   0.79442   0.80821   0.80902   0.82752

 Mulliken charges:
               1
     1  O   -0.503926
     2  H    0.251225
     3  H    0.252701
     4  O   -0.503828
     5  H    0.250894
     6  H    0.252933
 Sum of Mulliken charges =  -0.00000

 Dipole moment (field-independent basis, Debye):
    X=             -0.7489    Y=             -0.1520    Z=              0.0000  Tot=              0.7642
 Quadrupole moment (field-independent basis, Debye-Ang):
   XX=             -8.1084   YY=              9.3668   ZZ=            -14.7104
   XY=             -1.4390   XZ=              0.0000   YZ=              0.0000

 Normal termination of Gaussian 16 at Sat Aug 27 02:15:20 2022.
