 Gaussian 16, Revision A.03,
 Gaussian 16:  ES64L-G16RevA.03 25-Dec-2016

 ------------------
 #p CCSD(T)/cc-pVTZ
 ------------------

 ------------
 H2O_H2O_1532
 ------------
 Symbolic Z-matrix:
 Charge =  0 Multiplicity = 1

                         Standard orientation:
 ---------------------------------------------------------------------
 Center     Atomic      Atomic             Coordinates (Angstroms)
 Number     Number       Type             X           Y           Z
 ---------------------------------------------------------------------
      1          8           0        0.025268   -1.608288    0.000000
      2          1           0       -0.775071   -2.178342    0.000000
      3          1           0        0.824069   -2.180497    0.000000
      4          8           0        0.025268    1.620000    0.000000
      5          1           0        0.490943    2.485247    0.000000
      6          1           0       -0.944236    1.779897    0.000000
 ---------------------------------------------------------------------

 SCF Done:  E(RHF) =  -152.103454617     A.U. after   10 cycles
 E2 =    -0.5269894266D+00 EUMP2 =    -0.15263044404327D+03
 CCSD(T)
 CCSD(T)= -0.15265770255D+03

 The electronic state is 1-A'.
 Alpha  occ. eigenvalues --  -20.54297 -20.54035  -1.31597  -1.31296  -0.69023
 Alpha  occ. eigenvalues --   -0.68719  -0.55489  -0.53853  -0.48737  -0.48339
 Alpha virt. eigenvalues --    0.14172   0.16447   0.20494   0.21805   0.52672
 Alpha virt. eigenvalues --    0.57620   0.58141   0.58671   0.63921   0.76851
 Alpha virt. eigenvalues --    0.78278   0.78598   0.79481   0.81969   0.85677

 Mulliken charges:
               1
     1  O   -0.480636
     2  H    0.237111
     3  H    0.244040
     4  O   -0.479602
     5  H    0.235667
     6  H    0.243420
 Sum of Mulliken charges =  -0.00000

 Dipole moment (field-independent basis, Debye):
    X=             -0.8350    Y=             -0.2198    Z=              0.0000  Tot=              0.8635
 Quadrupole moment (field-independent basis, Debye-Ang):
   XX=             -8.2678   YY=              0.3254   ZZ=            -14.7102
   XY=             -0.7322   XZ=              0.0000   YZ=              0.0000

 Normal termination of Gaussian 16 at Sat Aug 27 05:19:04 2022.
