 Gaussian 16, Revision A.03,
 Gaussian 16:  ES64L-G16RevA.03 25-Dec-2016

 ------------------
 #p CCSD(T)/cc-pVTZ
 ------------------

 ------------
 H2O_H2O_1216
 ------------
 Symbolic Z-matrix:
 Charge =  0 Multiplicity = 1

                         Standard orientation:
 ---------------------------------------------------------------------
 Center     Atomic      Atomic             Coordinates (Angstroms)
 Number     Number       Type             X           Y           Z
 ---------------------------------------------------------------------
      1          8           0        0.049546   -1.410941    0.000000
      2          1           0       -0.751711   -1.979705    0.000000
      3          1           0        0.847424   -1.984435    0.000000
      4          8           0        0.049546    1.467761    0.000000
      5          1           0       -0.042390    2.446052    0.000000
      6          1           0       -0.846054    1.063525    0.000000
 ---------------------------------------------------------------------

 SCF Done:  E(RHF) =  -152.104480844     A.U. after   10 cycles
 E2 =    -0.5276990913D+00 EUMP2 =    -0.15263217993479D+03
 CCSD(T)
 CCSD(T)= -0.15265936508D+03

 The electronic state is 1-A'.
 Alpha  occ. eigenvalues --  -20.55169 -20.53463  -1.32525  -1.30713  -0.69947
 Alpha  occ. eigenvalues --   -0.68188  -0.56080  -0.53697  -0.49651  -0.47793
 Alpha virt. eigenvalues --    0.13694   0.17053   0.20032   0.23337   0.53799
 Alpha virt. eigenvalues --    0.57197   0.57483   0.58305   0.68544   0.75675
 Alpha virt. eigenvalues --    0.76312   0.77007   0.80814   0.82545   0.85071

 Mulliken charges:
               1
     1  O   -0.480706
     2  H    0.235552
     3  H    0.251149
     4  O   -0.484607
     5  H    0.227389
     6  H    0.251223
 Sum of Mulliken charges =  -0.00000

 Dipole moment (field-independent basis, Debye):
    X=             -1.6009    Y=             -1.1011    Z=              0.0000  Tot=              1.9430
 Quadrupole moment (field-independent basis, Debye-Ang):
   XX=             -9.3902   YY=             -2.2515   ZZ=            -14.7203
   XY=             -1.8507   XZ=              0.0000   YZ=              0.0000

 Normal termination of Gaussian 16 at Sat Aug 27 03:05:20 2022.
