 Gaussian 16, Revision A.03,
 Gaussian 16:  ES64L-G16RevA.03 25-Dec-2016

 ------------------
 #p CCSD(T)/cc-pVTZ
 ------------------

 ------------
 H2O_H2O_1355
 ------------
 Symbolic Z-matrix:
 Charge =  0 Multiplicity = 1

                         Standard orientation:
 ---------------------------------------------------------------------
 Center     Atomic      Atomic             Coordinates (Angstroms)
 Number     Number       Type             X           Y           Z
 ---------------------------------------------------------------------
      1          8           0        0.018362   -1.518306    0.000000
      2          1           0       -0.781802   -2.088607    0.000000
      3          1           0        0.817339   -2.090268    0.000000
      4          8           0        0.018362    1.524330    0.000000
      5          1           0        0.592744    2.321569    0.000000
      6          1           0       -0.922065    1.809116    0.000000
 ---------------------------------------------------------------------

 SCF Done:  E(RHF) =  -152.101961820     A.U. after   11 cycles
 E2 =    -0.5273125217D+00 EUMP2 =    -0.15262927434125D+03
 CCSD(T)
 CCSD(T)= -0.15265655868D+03

 The electronic state is 1-A'.
 Alpha  occ. eigenvalues --  -20.54004 -20.53860  -1.31361  -1.31102  -0.68777
 Alpha  occ. eigenvalues --   -0.68550  -0.55608  -0.53187  -0.48546  -0.48080
 Alpha virt. eigenvalues --    0.14305   0.16664   0.20532   0.21894   0.52059
 Alpha virt. eigenvalues --    0.58295   0.58574   0.59326   0.65702   0.76582
 Alpha virt. eigenvalues --    0.77815   0.78383   0.79130   0.82571   0.86011

 Mulliken charges:
               1
     1  O   -0.474988
     2  H    0.234589
     3  H    0.240553
     4  O   -0.473166
     5  H    0.233618
     6  H    0.239393
 Sum of Mulliken charges =  -0.00000

 Dipole moment (field-independent basis, Debye):
    X=             -0.6016    Y=             -0.1137    Z=              0.0000  Tot=              0.6123
 Quadrupole moment (field-independent basis, Debye-Ang):
   XX=             -8.1005   YY=             -0.3515   ZZ=            -14.7107
   XY=             -0.4450   XZ=              0.0000   YZ=              0.0000

 Normal termination of Gaussian 16 at Sat Aug 27 04:11:34 2022.
