 Gaussian 16, Revision A.03,
 Gaussian 16:  ES64L-G16RevA.03 25-Dec-2016

 ------------------
 #p CCSD(T)/cc-pVTZ
 ------------------

 ------------
 H2O_H2O_3892
 ------------
 Symbolic Z-matrix:
 Charge =  0 Multiplicity = 1

                         Standard orientation:
 ---------------------------------------------------------------------
 Center     Atomic      Atomic             Coordinates (Angstroms)
 Number     Number       Type             X           Y           Z
 ---------------------------------------------------------------------
      1          8           0        0.051272   -2.829953    0.000000
      2          1           0       -0.749178   -3.399852    0.000000
      3          1           0        0.849962   -3.402316    0.000000
      4          8           0        0.051272    2.893500    0.000000
      5          1           0       -0.105824    3.863462    0.000000
      6          1           0       -0.815316    2.430326    0.000000
 ---------------------------------------------------------------------

 SCF Done:  E(RHF) =  -152.107263631     A.U. after   10 cycles
 E2 =    -0.5259050460D+00 EUMP2 =    -0.15263316867676D+03
 CCSD(T)
 CCSD(T)= -0.15266039093D+03

 The electronic state is 1-A'.
 Alpha  occ. eigenvalues --  -20.55504 -20.55050  -1.32802  -1.32346  -0.70209
 Alpha  occ. eigenvalues --   -0.69744  -0.56243  -0.55785  -0.49913  -0.49458
 Alpha virt. eigenvalues --    0.14096   0.14662   0.20215   0.20729   0.54346
 Alpha virt. eigenvalues --    0.54834   0.57259   0.57711   0.67807   0.68584
 Alpha virt. eigenvalues --    0.78968   0.79414   0.80398   0.80846   0.82406

 Mulliken charges:
               1
     1  O   -0.508055
     2  H    0.252514
     3  H    0.255550
     4  O   -0.507703
     5  H    0.251182
     6  H    0.256513
 Sum of Mulliken charges =  -0.00000

 Dipole moment (field-independent basis, Debye):
    X=             -1.7592    Y=             -1.1148    Z=              0.0000  Tot=              2.0827
 Quadrupole moment (field-independent basis, Debye-Ang):
   XX=             -9.4576   YY=              6.0573   ZZ=            -14.7118
   XY=             -4.4660   XZ=              0.0000   YZ=              0.0000

 Normal termination of Gaussian 16 at Sat Aug 27 04:06:42 2022.
