 Gaussian 16, Revision A.03,
 Gaussian 16:  ES64L-G16RevA.03 25-Dec-2016

 ------------------
 #p CCSD(T)/cc-pVTZ
 ------------------

 ------------
 H2O_H2O_3313
 ------------
 Symbolic Z-matrix:
 Charge =  0 Multiplicity = 1

                         Standard orientation:
 ---------------------------------------------------------------------
 Center     Atomic      Atomic             Coordinates (Angstroms)
 Number     Number       Type             X           Y           Z
 ---------------------------------------------------------------------
      1          8           0        0.042968   -2.537593    0.000000
      2          1           0       -0.757428   -3.107568    0.000000
      3          1           0        0.841713   -3.109880    0.000000
      4          8           0        0.042968    2.576380    0.000000
      5          1           0        0.142175    3.553961    0.000000
      6          1           0       -0.913950    2.353188    0.000000
 ---------------------------------------------------------------------

 SCF Done:  E(RHF) =  -152.106808451     A.U. after   10 cycles
 E2 =    -0.5259671132D+00 EUMP2 =    -0.15263277556427D+03
 CCSD(T)
 CCSD(T)= -0.15266000593D+03

 The electronic state is 1-A'.
 Alpha  occ. eigenvalues --  -20.55271 -20.54922  -1.32566  -1.32214  -0.69975
 Alpha  occ. eigenvalues --   -0.69613  -0.55985  -0.55634  -0.49673  -0.49324
 Alpha virt. eigenvalues --    0.14158   0.14869   0.20352   0.20827   0.54537
 Alpha virt. eigenvalues --    0.54973   0.57455   0.57799   0.67531   0.69446
 Alpha virt. eigenvalues --    0.79205   0.79549   0.80612   0.81015   0.82716

 Mulliken charges:
               1
     1  O   -0.505349
     2  H    0.250913
     3  H    0.254463
     4  O   -0.504949
     5  H    0.249730
     6  H    0.255190
 Sum of Mulliken charges =  -0.00000

 Dipole moment (field-independent basis, Debye):
    X=             -1.4698    Y=             -0.6843    Z=              0.0000  Tot=              1.6213
 Quadrupole moment (field-independent basis, Debye-Ang):
   XX=             -8.9673   YY=              6.0408   ZZ=            -14.7111
   XY=             -2.9634   XZ=              0.0000   YZ=              0.0000

 Normal termination of Gaussian 16 at Fri Aug 26 21:17:08 2022.
