 Gaussian 16, Revision A.03,
 Gaussian 16:  ES64L-G16RevA.03 25-Dec-2016

 ------------------
 #p CCSD(T)/cc-pVTZ
 ------------------

 ------------
 H2O_H2O_3731
 ------------
 Symbolic Z-matrix:
 Charge =  0 Multiplicity = 1

                         Standard orientation:
 ---------------------------------------------------------------------
 Center     Atomic      Atomic             Coordinates (Angstroms)
 Number     Number       Type             X           Y           Z
 ---------------------------------------------------------------------
      1          8           0        0.021859   -2.779983    0.000000
      2          1           0       -0.778098   -3.350575    0.000000
      3          1           0        0.821044   -3.351655    0.000000
      4          8           0        0.021859    2.788648    0.000000
      5          1           0        0.542567    3.621937    0.000000
      6          1           0       -0.935261    3.010970    0.000000
 ---------------------------------------------------------------------

 SCF Done:  E(RHF) =  -152.106605711     A.U. after   10 cycles
 E2 =    -0.5259624862D+00 EUMP2 =    -0.15263256819677D+03
 CCSD(T)
 CCSD(T)= -0.15265980463D+03

 The electronic state is 1-A'.
 Alpha  occ. eigenvalues --  -20.55116 -20.55052  -1.32411  -1.32346  -0.69820
 Alpha  occ. eigenvalues --   -0.69753  -0.55821  -0.55756  -0.49517  -0.49452
 Alpha virt. eigenvalues --    0.14436   0.14615   0.20512   0.20610   0.54740
 Alpha virt. eigenvalues --    0.54833   0.57596   0.57669   0.68189   0.68743
 Alpha virt. eigenvalues --    0.79361   0.79425   0.80806   0.80883   0.82740

 Mulliken charges:
               1
     1  O   -0.504148
     2  H    0.251365
     3  H    0.252783
     4  O   -0.504056
     5  H    0.251044
     6  H    0.253011
 Sum of Mulliken charges =  -0.00000

 Dipole moment (field-independent basis, Debye):
    X=             -0.7492    Y=             -0.1519    Z=              0.0000  Tot=              0.7645
 Quadrupole moment (field-independent basis, Debye-Ang):
   XX=             -8.1078   YY=              9.6758   ZZ=            -14.7104
   XY=             -1.4686   XZ=              0.0000   YZ=              0.0000

 Normal termination of Gaussian 16 at Sat Aug 27 02:50:08 2022.
