 Gaussian 16, Revision A.03,
 Gaussian 16:  ES64L-G16RevA.03 25-Dec-2016

 ------------------
 #p CCSD(T)/cc-pVTZ
 ------------------

 ------------
 H2O_H2O_3123
 ------------
 Symbolic Z-matrix:
 Charge =  0 Multiplicity = 1

                         Standard orientation:
 ---------------------------------------------------------------------
 Center     Atomic      Atomic             Coordinates (Angstroms)
 Number     Number       Type             X           Y           Z
 ---------------------------------------------------------------------
      1          8           0        0.057098   -2.394438    0.000000
      2          1           0       -0.743616   -2.963966    0.000000
      3          1           0        0.855522   -2.967171    0.000000
      4          8           0        0.057098    2.500965    0.000000
      5          1           0       -0.458842    3.337214    0.000000
      6          1           0       -0.566629    1.741708    0.000000
 ---------------------------------------------------------------------

 SCF Done:  E(RHF) =  -152.108014218     A.U. after   10 cycles
 E2 =    -0.5259196010D+00 EUMP2 =    -0.15263393381866D+03
 CCSD(T)
 CCSD(T)= -0.15266113067D+03

 The electronic state is 1-A'.
 Alpha  occ. eigenvalues --  -20.55866 -20.54771  -1.33160  -1.32072  -0.70566
 Alpha  occ. eigenvalues --   -0.69458  -0.56630  -0.55530  -0.50276  -0.49191
 Alpha virt. eigenvalues --    0.13368   0.15243   0.19936   0.21359   0.53950
 Alpha virt. eigenvalues --    0.54878   0.56975   0.57918   0.66753   0.69973
 Alpha virt. eigenvalues --    0.78616   0.79665   0.79701   0.80295   0.82808

 Mulliken charges:
               1
     1  O   -0.511042
     2  H    0.253330
     3  H    0.258241
     4  O   -0.511112
     5  H    0.250107
     6  H    0.260476
 Sum of Mulliken charges =  -0.00000

 Dipole moment (field-independent basis, Debye):
    X=             -1.9513    Y=             -1.8960    Z=              0.0000  Tot=              2.7207
 Quadrupole moment (field-independent basis, Debye-Ang):
   XX=             -9.8530   YY=              0.3223   ZZ=            -14.7143
   XY=             -4.9410   XZ=              0.0000   YZ=              0.0000

 Normal termination of Gaussian 16 at Fri Aug 26 19:37:24 2022.
