 Gaussian 16, Revision A.03,
 Gaussian 16:  ES64L-G16RevA.03 25-Dec-2016

 ------------------
 #p CCSD(T)/cc-pVTZ
 ------------------

 ------------
 H2O_H2O_1450
 ------------
 Symbolic Z-matrix:
 Charge =  0 Multiplicity = 1

                         Standard orientation:
 ---------------------------------------------------------------------
 Center     Atomic      Atomic             Coordinates (Angstroms)
 Number     Number       Type             X           Y           Z
 ---------------------------------------------------------------------
      1          8           0        0.000000   -0.000000    1.574762
      2          1           0        0.000000    0.799571    2.145894
      3          1           0       -0.000000   -0.799571    2.145894
      4          8           0        0.000000   -0.000000   -1.574762
      5          1           0       -0.000000   -0.799571   -2.145894
      6          1           0        0.000000    0.799571   -2.145894
 ---------------------------------------------------------------------

 SCF Done:  E(RHF) =  -152.102312209     A.U. after   10 cycles
 E2 =    -0.5271241815D+00 EUMP2 =    -0.15262943639063D+03
 CCSD(T)
 CCSD(T)= -0.15265672194D+03

 The electronic state is 1-AG.
 Alpha  occ. eigenvalues --  -20.53978 -20.53978  -1.31348  -1.31196  -0.68765
 Alpha  occ. eigenvalues --   -0.68646  -0.55475  -0.53413  -0.48527  -0.48181
 Alpha virt. eigenvalues --    0.14360   0.16528   0.20580   0.21713   0.52139
 Alpha virt. eigenvalues --    0.58210   0.58598   0.59318   0.63814   0.76063
 Alpha virt. eigenvalues --    0.78188   0.78206   0.79517   0.82279   0.86048

 Mulliken charges:
               1
     1  O   -0.475789
     2  H    0.237895
     3  H    0.237895
     4  O   -0.475789
     5  H    0.237895
     6  H    0.237895
 Sum of Mulliken charges =   0.00000

 Dipole moment (field-independent basis, Debye):
    X=             -0.0000    Y=              0.0000    Z=             -0.0000  Tot=              0.0000
 Quadrupole moment (field-independent basis, Debye-Ang):
   XX=            -14.7093   YY=             -7.8844   ZZ=              0.2333
   XY=              0.0000   XZ=              0.0000   YZ=             -0.0000

 \MP4DQ=-152.6383852\MP4SDQ=-152.6415209\CCSD=-152.6409028\CCSD(T)=-152
 Normal termination of Gaussian 16 at Sat Aug 27 04:50:01 2022.
