 Gaussian 16, Revision A.03,
 Gaussian 16:  ES64L-G16RevA.03 25-Dec-2016

 ------------------
 #p CCSD(T)/cc-pVTZ
 ------------------

 ------------
 H2O_H2O_4250
 ------------
 Symbolic Z-matrix:
 Charge =  0 Multiplicity = 1

                         Standard orientation:
 ---------------------------------------------------------------------
 Center     Atomic      Atomic             Coordinates (Angstroms)
 Number     Number       Type             X           Y           Z
 ---------------------------------------------------------------------
      1          8           0        0.000000   -0.000000    3.063904
      2          1           0        0.000000    0.799571    3.635036
      3          1           0       -0.000000   -0.799571    3.635036
      4          8           0        0.000000   -0.000000   -3.063904
      5          1           0       -0.000000   -0.799571   -3.635036
      6          1           0        0.000000    0.799571   -3.635036
 ---------------------------------------------------------------------

 SCF Done:  E(RHF) =  -152.106749454     A.U. after   10 cycles
 E2 =    -0.5259386089D+00 EUMP2 =    -0.15263268806283D+03
 CCSD(T)
 CCSD(T)= -0.15265992209D+03

 The electronic state is 1-AG.
 Alpha  occ. eigenvalues --  -20.55158 -20.55158  -1.32454  -1.32454  -0.69861
 Alpha  occ. eigenvalues --   -0.69861  -0.55871  -0.55870  -0.49560  -0.49560
 Alpha virt. eigenvalues --    0.14445   0.14484   0.20497   0.20514   0.54704
 Alpha virt. eigenvalues --    0.54714   0.57565   0.57573   0.68321   0.68421
 Alpha virt. eigenvalues --    0.79318   0.79319   0.80763   0.80764   0.82693

 Mulliken charges:
               1
     1  O   -0.504980
     2  H    0.252490
     3  H    0.252490
     4  O   -0.504980
     5  H    0.252490
     6  H    0.252490
 Sum of Mulliken charges =   0.00000

 Dipole moment (field-independent basis, Debye):
    X=             -0.0000    Y=              0.0000    Z=              0.0000  Tot=              0.0000
 Quadrupole moment (field-independent basis, Debye-Ang):
   XX=            -14.7105   YY=             -7.8041   ZZ=             12.4761
   XY=              0.0000   XZ=              0.0000   YZ=             -0.0000

 1\MP4DQ=-152.6418137\MP4SDQ=-152.6448744\CCSD=-152.6442858\CCSD(T)=-15
 Normal termination of Gaussian 16 at Sat Aug 27 06:15:29 2022.
