 Gaussian 16, Revision A.03,
 Gaussian 16:  ES64L-G16RevA.03 25-Dec-2016

 ------------------
 #p CCSD(T)/cc-pVTZ
 ------------------

 ------------
 H2O_H2O_1964
 ------------
 Symbolic Z-matrix:
 Charge =  0 Multiplicity = 1

                         Standard orientation:
 ---------------------------------------------------------------------
 Center     Atomic      Atomic             Coordinates (Angstroms)
 Number     Number       Type             X           Y           Z
 ---------------------------------------------------------------------
      1          8           0        0.045358   -1.816512    0.000000
      2          1           0       -0.755422   -2.385946    0.000000
      3          1           0        0.843716   -2.389339    0.000000
      4          8           0        0.045358    1.861009    0.000000
      5          1           0        0.081080    2.842961    0.000000
      6          1           0       -0.895106    1.576344    0.000000
 ---------------------------------------------------------------------

 SCF Done:  E(RHF) =  -152.106210117     A.U. after   10 cycles
 E2 =    -0.5264397606D+00 EUMP2 =    -0.15263264987798D+03
 CCSD(T)
 CCSD(T)= -0.15265985582D+03

 The electronic state is 1-A'.
 Alpha  occ. eigenvalues --  -20.55124 -20.54288  -1.32400  -1.31559  -0.69818
 Alpha  occ. eigenvalues --   -0.68943  -0.55811  -0.54877  -0.49508  -0.48669
 Alpha virt. eigenvalues --    0.13649   0.16104   0.20234   0.21953   0.53414
 Alpha virt. eigenvalues --    0.55034   0.57592   0.58476   0.64014   0.76274
 Alpha virt. eigenvalues --    0.78831   0.78922   0.80612   0.80665   0.84613

 Mulliken charges:
               1
     1  O   -0.495292
     2  H    0.244067
     3  H    0.252790
     4  O   -0.497433
     5  H    0.241516
     6  H    0.254352
 Sum of Mulliken charges =  -0.00000

 Dipole moment (field-independent basis, Debye):
    X=             -1.5206    Y=             -0.8211    Z=              0.0000  Tot=              1.7281
 Quadrupole moment (field-independent basis, Debye-Ang):
   XX=             -9.1144   YY=              0.9337   ZZ=            -14.7128
   XY=             -2.1141   XZ=              0.0000   YZ=              0.0000

 Normal termination of Gaussian 16 at Sat Aug 27 07:48:46 2022.
