 Gaussian 16, Revision A.03,
 Gaussian 16:  ES64L-G16RevA.03 25-Dec-2016

 ------------------
 #p CCSD(T)/cc-pVTZ
 ------------------

 ------------
 H2O_H2O_3243
 ------------
 Symbolic Z-matrix:
 Charge =  0 Multiplicity = 1

                         Standard orientation:
 ---------------------------------------------------------------------
 Center     Atomic      Atomic             Coordinates (Angstroms)
 Number     Number       Type             X           Y           Z
 ---------------------------------------------------------------------
      1          8           0        0.052829   -2.480579    0.000000
      2          1           0       -0.747772   -3.050266    0.000000
      3          1           0        0.851368   -3.053154    0.000000
      4          8           0        0.052829    2.550902    0.000000
      5          1           0       -0.167116    3.508571    0.000000
      6          1           0       -0.781749    2.032263    0.000000
 ---------------------------------------------------------------------

 SCF Done:  E(RHF) =  -152.107308987     A.U. after   10 cycles
 E2 =    -0.5259405321D+00 EUMP2 =    -0.15263324951952D+03
 CCSD(T)
 CCSD(T)= -0.15266046692D+03

 The electronic state is 1-A'.
 Alpha  occ. eigenvalues --  -20.55534 -20.54866  -1.32830  -1.32160  -0.70237
 Alpha  occ. eigenvalues --   -0.69552  -0.56271  -0.55599  -0.49941  -0.49274
 Alpha virt. eigenvalues --    0.13819   0.15021   0.20154   0.21023   0.54254
 Alpha virt. eigenvalues --    0.54949   0.57239   0.57840   0.67149   0.69694
 Alpha virt. eigenvalues --    0.78942   0.79592   0.80251   0.80803   0.82759

 Mulliken charges:
               1
     1  O   -0.508057
     2  H    0.251845
     3  H    0.256347
     4  O   -0.507641
     5  H    0.249772
     6  H    0.257734
 Sum of Mulliken charges =  -0.00000

 Dipole moment (field-independent basis, Debye):
    X=             -1.8067    Y=             -1.2449    Z=              0.0000  Tot=              2.1941
 Quadrupole moment (field-independent basis, Debye-Ang):
   XX=             -9.5589   YY=              3.5462   ZZ=            -14.7123
   XY=             -4.0937   XZ=              0.0000   YZ=              0.0000

 4992\MP4DQ=-152.6423634\MP4SDQ=-152.6454216\CCSD=-152.6448329\CCSD(T)=
 Normal termination of Gaussian 16 at Fri Aug 26 20:40:08 2022.
