 Gaussian 16, Revision A.03,
 Gaussian 16:  ES64L-G16RevA.03 25-Dec-2016

 ------------------
 #p CCSD(T)/cc-pVTZ
 ------------------

 ------------
 H2O_H2O_3128
 ------------
 Symbolic Z-matrix:
 Charge =  0 Multiplicity = 1

                         Standard orientation:
 ---------------------------------------------------------------------
 Center     Atomic      Atomic             Coordinates (Angstroms)
 Number     Number       Type             X           Y           Z
 ---------------------------------------------------------------------
      1          8           0        0.011143   -2.464400    0.000000
      2          1           0       -0.788650   -3.035221    0.000000
      3          1           0        0.810491   -3.035843    0.000000
      4          8           0        0.011143    2.466586    0.000000
      5          1           0        0.684206    3.182471    0.000000
      6          1           0       -0.884330    2.871105    0.000000
 ---------------------------------------------------------------------

 SCF Done:  E(RHF) =  -152.106134880     A.U. after   10 cycles
 E2 =    -0.5260291705D+00 EUMP2 =    -0.15263216405069D+03
 CCSD(T)
 CCSD(T)= -0.15265940878D+03

 The electronic state is 1-A'.
 Alpha  occ. eigenvalues --  -20.54920 -20.54900  -1.32213  -1.32192  -0.69623
 Alpha  occ. eigenvalues --   -0.69601  -0.55608  -0.55568  -0.49315  -0.49294
 Alpha virt. eigenvalues --    0.14427   0.14888   0.20593   0.20747   0.54836
 Alpha virt. eigenvalues --    0.55084   0.57732   0.57807   0.67335   0.70050
 Alpha virt. eigenvalues --    0.79543   0.79597   0.80976   0.81083   0.82674

 Mulliken charges:
               1
     1  O   -0.501375
     2  H    0.250183
     3  H    0.251194
     4  O   -0.501330
     5  H    0.250011
     6  H    0.251318
 Sum of Mulliken charges =  -0.00000

 Dipole moment (field-independent basis, Debye):
    X=             -0.3806    Y=             -0.0386    Z=              0.0000  Tot=              0.3825
 Quadrupole moment (field-independent basis, Debye-Ang):
   XX=             -7.8930   YY=              7.5424   ZZ=            -14.7099
   XY=             -0.6058   XZ=              0.0000   YZ=              0.0000

 Normal termination of Gaussian 16 at Fri Aug 26 19:39:49 2022.
