 Gaussian 16, Revision A.03,
 Gaussian 16:  ES64L-G16RevA.03 25-Dec-2016

 ------------------
 #p CCSD(T)/cc-pVTZ
 ------------------

 ------------
 H2O_H2O_3132
 ------------
 Symbolic Z-matrix:
 Charge =  0 Multiplicity = 1

                         Standard orientation:
 ---------------------------------------------------------------------
 Center     Atomic      Atomic             Coordinates (Angstroms)
 Number     Number       Type             X           Y           Z
 ---------------------------------------------------------------------
      1          8           0        0.025266   -2.459214    0.000000
      2          1           0       -0.774809   -3.029640    0.000000
      3          1           0        0.824333   -3.031051    0.000000
      4          8           0        0.025266    2.470949    0.000000
      5          1           0        0.490537    3.336413    0.000000
      6          1           0       -0.944313    2.630396    0.000000
 ---------------------------------------------------------------------

 SCF Done:  E(RHF) =  -152.106287206     A.U. after   10 cycles
 E2 =    -0.5260179580D+00 EUMP2 =    -0.15263230516415D+03
 CCSD(T)
 CCSD(T)= -0.15265954647D+03

 The electronic state is 1-A'.
 Alpha  occ. eigenvalues --  -20.55004 -20.54892  -1.32298  -1.32184  -0.69707
 Alpha  occ. eigenvalues --   -0.69590  -0.55692  -0.55576  -0.49401  -0.49288
 Alpha virt. eigenvalues --    0.14351   0.14905   0.20534   0.20777   0.54761
 Alpha virt. eigenvalues --    0.55067   0.57672   0.57812   0.67313   0.70007
 Alpha virt. eigenvalues --    0.79470   0.79591   0.80893   0.81093   0.82694

 Mulliken charges:
               1
     1  O   -0.502282
     2  H    0.249994
     3  H    0.252296
     4  O   -0.502069
     5  H    0.249480
     6  H    0.252581
 Sum of Mulliken charges =  -0.00000

 Dipole moment (field-independent basis, Debye):
    X=             -0.8630    Y=             -0.2072    Z=              0.0000  Tot=              0.8875
 Quadrupole moment (field-independent basis, Debye-Ang):
   XX=             -8.2139   YY=              7.0279   ZZ=            -14.7102
   XY=             -1.4491   XZ=              0.0000   YZ=              0.0000

 Normal termination of Gaussian 16 at Fri Aug 26 19:41:44 2022.
