 Gaussian 16, Revision A.03,
 Gaussian 16:  ES64L-G16RevA.03 25-Dec-2016

 ------------------
 #p CCSD(T)/cc-pVTZ
 ------------------

 ------------
 H2O_H2O_1478
 ------------
 Symbolic Z-matrix:
 Charge =  0 Multiplicity = 1

                         Standard orientation:
 ---------------------------------------------------------------------
 Center     Atomic      Atomic             Coordinates (Angstroms)
 Number     Number       Type             X           Y           Z
 ---------------------------------------------------------------------
      1          8           0        0.011143   -1.586873    0.000000
      2          1           0       -0.788773   -2.157522    0.000000
      3          1           0        0.810369   -2.158487    0.000000
      4          8           0        0.011143    1.589054    0.000000
      5          1           0        0.684360    2.304794    0.000000
      6          1           0       -0.884243    1.993765    0.000000
 ---------------------------------------------------------------------

 SCF Done:  E(RHF) =  -152.102610486     A.U. after   10 cycles
 E2 =    -0.5270794911D+00 EUMP2 =    -0.15262968997747D+03
 CCSD(T)
 CCSD(T)= -0.15265696910D+03

 The electronic state is 1-A'.
 Alpha  occ. eigenvalues --  -20.54050 -20.54002  -1.31392  -1.31240  -0.68810
 Alpha  occ. eigenvalues --   -0.68684  -0.55465  -0.53536  -0.48566  -0.48235
 Alpha virt. eigenvalues --    0.14320   0.16495   0.20567   0.21717   0.52292
 Alpha virt. eigenvalues --    0.58205   0.58533   0.58948   0.63723   0.76271
 Alpha virt. eigenvalues --    0.78238   0.78314   0.79543   0.82185   0.85996

 Mulliken charges:
               1
     1  O   -0.477077
     2  H    0.236960
     3  H    0.240198
     4  O   -0.476696
     5  H    0.236772
     6  H    0.239842
 Sum of Mulliken charges =  -0.00000

 Dipole moment (field-independent basis, Debye):
    X=             -0.3677    Y=             -0.0410    Z=              0.0000  Tot=              0.3700
 Quadrupole moment (field-independent basis, Debye-Ang):
   XX=             -7.9579   YY=              0.3083   ZZ=            -14.7093
   XY=             -0.2808   XZ=              0.0000   YZ=              0.0000

 62951\MP4DQ=-152.6386424\MP4SDQ=-152.6417755\CCSD=-152.641158\CCSD(T)=
 Normal termination of Gaussian 16 at Sat Aug 27 04:59:18 2022.
