 Gaussian 16, Revision A.03,
 Gaussian 16:  ES64L-G16RevA.03 25-Dec-2016

 ------------------
 #p CCSD(T)/cc-pVTZ
 ------------------

 ------------
 H2O_H2O_4605
 ------------
 Symbolic Z-matrix:
 Charge =  0 Multiplicity = 1

                         Standard orientation:
 ---------------------------------------------------------------------
 Center     Atomic      Atomic             Coordinates (Angstroms)
 Number     Number       Type             X           Y           Z
 ---------------------------------------------------------------------
      1          8           0        0.018360   -3.246764    0.000000
      2          1           0       -0.781489   -3.817507    0.000000
      3          1           0        0.817653   -3.818285    0.000000
      4          8           0        0.018360    3.252808    0.000000
      5          1           0        0.592302    4.050365    0.000000
      6          1           0       -0.922224    3.537073    0.000000
 ---------------------------------------------------------------------

 SCF Done:  E(RHF) =  -152.106910882     A.U. after   10 cycles
 E2 =    -0.5259203481D+00 EUMP2 =    -0.15263283123000D+03
 CCSD(T)
 CCSD(T)= -0.15266006208D+03

 The electronic state is 1-A'.
 Alpha  occ. eigenvalues --  -20.55243 -20.55211  -1.32540  -1.32507  -0.69947
 Alpha  occ. eigenvalues --   -0.69913  -0.55964  -0.55931  -0.49648  -0.49615
 Alpha virt. eigenvalues --    0.14390   0.14428   0.20441   0.20476   0.54622
 Alpha virt. eigenvalues --    0.54658   0.57496   0.57529   0.68257   0.68304
 Alpha virt. eigenvalues --    0.79232   0.79264   0.80673   0.80710   0.82600

 Mulliken charges:
               1
     1  O   -0.505932
     2  H    0.252582
     3  H    0.253350
     4  O   -0.505901
     5  H    0.252399
     6  H    0.253502
 Sum of Mulliken charges =  -0.00000

 Dipole moment (field-independent basis, Debye):
    X=             -0.6311    Y=             -0.1054    Z=              0.0000  Tot=              0.6398
 Quadrupole moment (field-independent basis, Debye-Ang):
   XX=             -8.0143   YY=             13.4802   ZZ=            -14.7108
   XY=             -1.5091   XZ=              0.0000   YZ=              0.0000

 Normal termination of Gaussian 16 at Sat Aug 27 08:17:47 2022.
