 Gaussian 16, Revision A.03,
 Gaussian 16:  ES64L-G16RevA.03 25-Dec-2016

 ------------------
 #p CCSD(T)/cc-pVTZ
 ------------------

 -----------
 H2O_H2O_800
 -----------
 Symbolic Z-matrix:
 Charge =  0 Multiplicity = 1

                         Standard orientation:
 ---------------------------------------------------------------------
 Center     Atomic      Atomic             Coordinates (Angstroms)
 Number     Number       Type             X           Y           Z
 ---------------------------------------------------------------------
      1          8           0        0.000000   -0.000000    1.229068
      2          1           0        0.000000    0.799571    1.800200
      3          1           0       -0.000000   -0.799571    1.800200
      4          8           0        0.000000   -0.000000   -1.229068
      5          1           0       -0.000000   -0.799571   -1.800200
      6          1           0        0.000000    0.799571   -1.800200
 ---------------------------------------------------------------------

 SCF Done:  E(RHF) =  -152.090505427     A.U. after   10 cycles
 E2 =    -0.5294735959D+00 EUMP2 =    -0.15261997902251D+03
 CCSD(T)
 CCSD(T)= -0.15264727209D+03

 The electronic state is 1-AG.
 Alpha  occ. eigenvalues --  -20.52963 -20.52962  -1.31007  -1.30015  -0.68261
 Alpha  occ. eigenvalues --   -0.67605  -0.57213  -0.49631  -0.48309  -0.46747
 Alpha virt. eigenvalues --    0.14523   0.17586   0.20579   0.22361   0.50283
 Alpha virt. eigenvalues --    0.58863   0.58929   0.63490   0.73257   0.76698
 Alpha virt. eigenvalues --    0.77202   0.79584   0.84070   0.85554   0.86537

 Mulliken charges:
               1
     1  O   -0.457669
     2  H    0.228834
     3  H    0.228834
     4  O   -0.457669
     5  H    0.228834
     6  H    0.228834
 Sum of Mulliken charges =   0.00000

 Dipole moment (field-independent basis, Debye):
    X=             -0.0000    Y=              0.0000    Z=              0.0000  Tot=              0.0000
 Quadrupole moment (field-independent basis, Debye-Ang):
   XX=            -14.7272   YY=             -7.9929   ZZ=             -3.0654
   XY=              0.0000   XZ=             -0.0000   YZ=             -0.0000

 MP4DQ=-152.6285117\MP4SDQ=-152.6317693\CCSD=-152.6311116\CCSD(T)=-152.
 Normal termination of Gaussian 16 at Fri Aug 26 20:08:51 2022.
