 Gaussian 16, Revision A.03,
 Gaussian 16:  ES64L-G16RevA.03 25-Dec-2016

 ------------------
 #p CCSD(T)/cc-pVTZ
 ------------------

 -----------
 H2O_H2O_144
 -----------
 Symbolic Z-matrix:
 Charge =  0 Multiplicity = 1

                         Standard orientation:
 ---------------------------------------------------------------------
 Center     Atomic      Atomic             Coordinates (Angstroms)
 Number     Number       Type             X           Y           Z
 ---------------------------------------------------------------------
      1          8           0        0.054290   -0.828291    0.000000
      2          1           0       -0.748337   -1.395120    0.000000
      3          1           0        0.850781   -1.403709    0.000000
      4          8           0        0.054290    0.905218    0.000000
      5          1           0       -0.224462    1.847452    0.000000
      6          1           0       -0.746616    0.335958    0.000000
 ---------------------------------------------------------------------

 SCF Done:  E(RHF) =  -151.963983569     A.U. after   11 cycles
 E2 =    -0.5462967347D+00 EUMP2 =    -0.15251028030341D+03
 CCSD(T)
 CCSD(T)= -0.15253564075D+03

 The electronic state is 1-A'.
 Alpha  occ. eigenvalues --  -20.54731 -20.49763  -1.38863  -1.26555  -0.76180
 Alpha  occ. eigenvalues --   -0.71214  -0.53841  -0.53521  -0.43526  -0.43140
 Alpha virt. eigenvalues --    0.13392   0.18864   0.19783   0.25166   0.50682
 Alpha virt. eigenvalues --    0.55147   0.61245   0.67009   0.73091   0.76559
 Alpha virt. eigenvalues --    0.79312   0.80654   0.84093   0.84784   0.88633

 Mulliken charges:
               1
     1  O   -0.330053
     2  H    0.163159
     3  H    0.209666
     4  O   -0.426012
     5  H    0.131395
     6  H    0.251845
 Sum of Mulliken charges =  -0.00000

 Dipole moment (field-independent basis, Debye):
    X=             -1.4444    Y=             -1.8031    Z=              0.0000  Tot=              2.3102
 Quadrupole moment (field-independent basis, Debye-Ang):
   XX=             -9.7469   YY=             -8.2065   ZZ=            -14.5966
   XY=             -1.2736   XZ=              0.0000   YZ=              0.0000

 Normal termination of Gaussian 16 at Fri Aug 26 13:17:21 2022.
