 Gaussian 16, Revision A.03,
 Gaussian 16:  ES64L-G16RevA.03 25-Dec-2016

 ------------------
 #p CCSD(T)/cc-pVTZ
 ------------------

 ------------
 H2O_H2O_1797
 ------------
 Symbolic Z-matrix:
 Charge =  0 Multiplicity = 1

                         Standard orientation:
 ---------------------------------------------------------------------
 Center     Atomic      Atomic             Coordinates (Angstroms)
 Number     Number       Type             X           Y           Z
 ---------------------------------------------------------------------
      1          8           0        0.056763   -1.693840    0.000000
      2          1           0       -0.744402   -2.262735    0.000000
      3          1           0        0.854734   -2.267206    0.000000
      4          8           0        0.056763    1.792840    0.000000
      5          1           0       -0.402691    2.661407    0.000000
      6          1           0       -0.615853    1.076535    0.000000
 ---------------------------------------------------------------------

 SCF Done:  E(RHF) =  -152.108920782     A.U. after   10 cycles
 E2 =    -0.5265684491D+00 EUMP2 =    -0.15263548923077D+03
 CCSD(T)
 CCSD(T)= -0.15266261966D+03

 The electronic state is 1-A'.
 Alpha  occ. eigenvalues --  -20.56170 -20.53880  -1.33438  -1.31179  -0.70845
 Alpha  occ. eigenvalues --   -0.68555  -0.56897  -0.54652  -0.50560  -0.48311
 Alpha virt. eigenvalues --    0.13048   0.16629   0.19744   0.24083   0.53260
 Alpha virt. eigenvalues --    0.55439   0.56687   0.58221   0.66564   0.75069
 Alpha virt. eigenvalues --    0.77456   0.77646   0.79359   0.80943   0.84352

 Mulliken charges:
               1
     1  O   -0.498073
     2  H    0.247020
     3  H    0.258069
     4  O   -0.512509
     5  H    0.242218
     6  H    0.263275
 Sum of Mulliken charges =  -0.00000

 Dipole moment (field-independent basis, Debye):
    X=             -1.8940    Y=             -1.8745    Z=              0.0000  Tot=              2.6647
 Quadrupole moment (field-independent basis, Debye-Ang):
   XX=             -9.8269   YY=             -2.2988   ZZ=            -14.7205
   XY=             -3.4385   XZ=              0.0000   YZ=              0.0000

 Normal termination of Gaussian 16 at Sat Aug 27 06:50:30 2022.
