 Gaussian 16, Revision A.03,
 Gaussian 16:  ES64L-G16RevA.03 25-Dec-2016

 ------------------
 #p CCSD(T)/cc-pVTZ
 ------------------

 ------------
 H2O_H2O_3401
 ------------
 Symbolic Z-matrix:
 Charge =  0 Multiplicity = 1

                         Standard orientation:
 ---------------------------------------------------------------------
 Center     Atomic      Atomic             Coordinates (Angstroms)
 Number     Number       Type             X           Y           Z
 ---------------------------------------------------------------------
      1          8           0        0.003735   -2.611710    0.000000
      2          1           0       -0.795906   -3.182744    0.000000
      3          1           0        0.803236   -3.182941    0.000000
      4          8           0        0.003735    2.611954    0.000000
      5          1           0        0.764318    3.234064    0.000000
      6          1           0       -0.831414    3.129672    0.000000
 ---------------------------------------------------------------------

 SCF Done:  E(RHF) =  -152.106312741     A.U. after   10 cycles
 E2 =    -0.5259983231D+00 EUMP2 =    -0.15263231106449D+03
 CCSD(T)
 CCSD(T)= -0.15265955310D+03

 The electronic state is 1-A'.
 Alpha  occ. eigenvalues --  -20.54981 -20.54978  -1.32274  -1.32272  -0.69683
 Alpha  occ. eigenvalues --   -0.69681  -0.55675  -0.55661  -0.49378  -0.49375
 Alpha virt. eigenvalues --    0.14471   0.14740   0.20580   0.20669   0.54832
 Alpha virt. eigenvalues --    0.54949   0.57694   0.57736   0.67935   0.69281
 Alpha virt. eigenvalues --    0.79491   0.79509   0.80922   0.80985   0.82774

 Mulliken charges:
               1
     1  O   -0.502420
     2  H    0.251066
     3  H    0.251355
     4  O   -0.502417
     5  H    0.251019
     6  H    0.251398
 Sum of Mulliken charges =  -0.00000

 Dipole moment (field-independent basis, Debye):
    X=             -0.1278    Y=             -0.0043    Z=              0.0000  Tot=              0.1279
 Quadrupole moment (field-independent basis, Debye-Ang):
   XX=             -7.8205   YY=              8.8260   ZZ=            -14.7100
   XY=             -0.2192   XZ=              0.0000   YZ=              0.0000

 Normal termination of Gaussian 16 at Fri Aug 26 22:01:06 2022.
