 Gaussian 16, Revision A.03,
 Gaussian 16:  ES64L-G16RevA.03 25-Dec-2016

 ------------------
 #p CCSD(T)/cc-pVTZ
 ------------------

 ----------
 H2O_H2O_97
 ----------
 Symbolic Z-matrix:
 Charge =  0 Multiplicity = 1

                         Standard orientation:
 ---------------------------------------------------------------------
 Center     Atomic      Atomic             Coordinates (Angstroms)
 Number     Number       Type             X           Y           Z
 ---------------------------------------------------------------------
      1          8           0        0.056912   -0.789897    0.000000
      2          1           0       -0.745963   -1.356376    0.000000
      3          1           0        0.853152   -1.365664    0.000000
      4          8           0        0.056912    0.888555    0.000000
      5          1           0       -0.399924    1.758501    0.000000
      6          1           0       -0.617859    0.174278    0.000000
 ---------------------------------------------------------------------

 SCF Done:  E(RHF) =  -151.904183371     A.U. after   12 cycles
 E2 =    -0.5512245501D+00 EUMP2 =    -0.15245540792065D+03
 CCSD(T)
 CCSD(T)= -0.15247963798D+03

 The electronic state is 1-A'.
 Alpha  occ. eigenvalues --  -20.56742 -20.47140  -1.43219  -1.25318  -0.80271
 Alpha  occ. eigenvalues --   -0.73512  -0.56400  -0.50361  -0.42235  -0.41640
 Alpha virt. eigenvalues --    0.12689   0.17874   0.20697   0.26481   0.49039
 Alpha virt. eigenvalues --    0.53183   0.62924   0.69883   0.73628   0.75264
 Alpha virt. eigenvalues --    0.77414   0.79233   0.84593   0.85076   0.89003

 Mulliken charges:
               1
     1  O   -0.269310
     2  H    0.158897
     3  H    0.212968
     4  O   -0.499892
     5  H    0.126544
     6  H    0.270794
 Sum of Mulliken charges =  -0.00000

 Dipole moment (field-independent basis, Debye):
    X=             -1.4577    Y=             -2.6226    Z=              0.0000  Tot=              3.0005
 Quadrupole moment (field-independent basis, Debye-Ang):
   XX=             -9.8422   YY=             -9.0886   ZZ=            -14.5210
   XY=             -1.6240   XZ=              0.0000   YZ=              0.0000

 72174\MP4DQ=-152.4581961\MP4SDQ=-152.4621565\CCSD=-152.461112\CCSD(T)=
 Normal termination of Gaussian 16 at Fri Aug 26 12:43:38 2022.
