 Gaussian 16, Revision A.03,
 Gaussian 16:  ES64L-G16RevA.03 25-Dec-2016

 ------------------
 #p CCSD(T)/cc-pVTZ
 ------------------

 ------------
 H2O_H2O_3829
 ------------
 Symbolic Z-matrix:
 Charge =  0 Multiplicity = 1

                         Standard orientation:
 ---------------------------------------------------------------------
 Center     Atomic      Atomic             Coordinates (Angstroms)
 Number     Number       Type             X           Y           Z
 ---------------------------------------------------------------------
      1          8           0        0.014783   -2.835766    0.000000
      2          1           0       -0.785044   -3.406540    0.000000
      3          1           0        0.814098   -3.407257    0.000000
      4          8           0        0.014783    2.839645    0.000000
      5          1           0        0.639630    3.597981    0.000000
      6          1           0       -0.905209    3.184785    0.000000
 ---------------------------------------------------------------------

 SCF Done:  E(RHF) =  -152.106602674     A.U. after   10 cycles
 E2 =    -0.5259597816D+00 EUMP2 =    -0.15263256245544D+03
 CCSD(T)
 CCSD(T)= -0.15265979912D+03

 The electronic state is 1-A'.
 Alpha  occ. eigenvalues --  -20.55104 -20.55076  -1.32399  -1.32371  -0.69807
 Alpha  occ. eigenvalues --   -0.69778  -0.55808  -0.55780  -0.49504  -0.49476
 Alpha virt. eigenvalues --    0.14458   0.14581   0.20525   0.20582   0.54754
 Alpha virt. eigenvalues --    0.54805   0.57608   0.57645   0.68260   0.68660
 Alpha virt. eigenvalues --    0.79374   0.79401   0.80819   0.80855   0.82750

 Mulliken charges:
               1
     1  O   -0.504124
     2  H    0.251608
     3  H    0.252516
     4  O   -0.504085
     5  H    0.251420
     6  H    0.252664
 Sum of Mulliken charges =  -0.00000

 Dipole moment (field-independent basis, Debye):
    X=             -0.5069    Y=             -0.0679    Z=              0.0000  Tot=              0.5114
 Quadrupole moment (field-independent basis, Debye-Ang):
   XX=             -7.9444   YY=             10.4076   ZZ=            -14.7104
   XY=             -0.9976   XZ=              0.0000   YZ=              0.0000

 Normal termination of Gaussian 16 at Sat Aug 27 03:37:59 2022.
