 Gaussian 16, Revision A.03,
 Gaussian 16:  ES64L-G16RevA.03 25-Dec-2016

 ------------------
 #p CCSD(T)/cc-pVTZ
 ------------------

 ------------
 H2O_H2O_4461
 ------------
 Symbolic Z-matrix:
 Charge =  0 Multiplicity = 1

                         Standard orientation:
 ---------------------------------------------------------------------
 Center     Atomic      Atomic             Coordinates (Angstroms)
 Number     Number       Type             X           Y           Z
 ---------------------------------------------------------------------
      1          8           0        0.037672   -3.154918    0.000000
      2          1           0       -0.762483   -3.725232    0.000000
      3          1           0        0.836658   -3.726867    0.000000
      4          8           0        0.037672    3.183187    0.000000
      5          1           0        0.263226    4.139551    0.000000
      6          1           0       -0.940152    3.086393    0.000000
 ---------------------------------------------------------------------

 SCF Done:  E(RHF) =  -152.107037484     A.U. after   10 cycles
 E2 =    -0.5259117939D+00 EUMP2 =    -0.15263294927798D+03
 CCSD(T)
 CCSD(T)= -0.15266017728D+03

 The electronic state is 1-A'.
 Alpha  occ. eigenvalues --  -20.55341 -20.55179  -1.32638  -1.32475  -0.70045
 Alpha  occ. eigenvalues --   -0.69878  -0.56068  -0.55905  -0.49747  -0.49584
 Alpha virt. eigenvalues --    0.14301   0.14471   0.20359   0.20531   0.54521
 Alpha virt. eigenvalues --    0.54696   0.57407   0.57570   0.68141   0.68323
 Alpha virt. eigenvalues --    0.79132   0.79293   0.80571   0.80748   0.82498

 Mulliken charges:
               1
     1  O   -0.506691
     2  H    0.252501
     3  H    0.254190
     4  O   -0.506560
     5  H    0.251973
     6  H    0.254587
 Sum of Mulliken charges =  -0.00000

 Dipole moment (field-independent basis, Debye):
    X=             -1.2945    Y=             -0.4935    Z=              0.0000  Tot=              1.3854
 Quadrupole moment (field-independent basis, Debye-Ang):
   XX=             -8.6960   YY=             11.0367   ZZ=            -14.7112
   XY=             -3.2569   XZ=              0.0000   YZ=              0.0000

 Normal termination of Gaussian 16 at Sat Aug 27 07:26:41 2022.
