 Gaussian 16, Revision A.03,
 Gaussian 16:  ES64L-G16RevA.03 25-Dec-2016

 ------------------
 #p CCSD(T)/cc-pVTZ
 ------------------

 ------------
 H2O_H2O_3030
 ------------
 Symbolic Z-matrix:
 Charge =  0 Multiplicity = 1

                         Standard orientation:
 ---------------------------------------------------------------------
 Center     Atomic      Atomic             Coordinates (Angstroms)
 Number     Number       Type             X           Y           Z
 ---------------------------------------------------------------------
      1          8           0        0.018360   -2.409125    0.000000
      2          1           0       -0.781585   -2.979733    0.000000
      3          1           0        0.817557   -2.980780    0.000000
      4          8           0        0.018360    2.415162    0.000000
      5          1           0        0.592437    3.212622    0.000000
      6          1           0       -0.922175    2.699588    0.000000
 ---------------------------------------------------------------------

 SCF Done:  E(RHF) =  -152.106115890     A.U. after   10 cycles
 E2 =    -0.5260394878D+00 EUMP2 =    -0.15263215537804D+03
 CCSD(T)
 CCSD(T)= -0.15265939979D+03

 The electronic state is 1-A'.
 Alpha  occ. eigenvalues --  -20.54925 -20.54865  -1.32218  -1.32157  -0.69628
 Alpha  occ. eigenvalues --   -0.69565  -0.55609  -0.55534  -0.49320  -0.49260
 Alpha virt. eigenvalues --    0.14376   0.14959   0.20576   0.20790   0.54799
 Alpha virt. eigenvalues --    0.55139   0.57727   0.57837   0.67011   0.70416
 Alpha virt. eigenvalues --    0.79539   0.79631   0.80971   0.81123   0.82617

 Mulliken charges:
               1
     1  O   -0.501260
     2  H    0.249746
     3  H    0.251519
     4  O   -0.501128
     5  H    0.249408
     6  H    0.251714
 Sum of Mulliken charges =  -0.00000

 Dipole moment (field-independent basis, Debye):
    X=             -0.6266    Y=             -0.1068    Z=              0.0000  Tot=              0.6356
 Quadrupole moment (field-independent basis, Debye-Ang):
   XX=             -8.0273   YY=              6.9183   ZZ=            -14.7099
   XY=             -0.9874   XZ=              0.0000   YZ=              0.0000

 Normal termination of Gaussian 16 at Fri Aug 26 18:41:11 2022.
