 Gaussian 16, Revision A.03,
 Gaussian 16:  ES64L-G16RevA.03 25-Dec-2016

 ------------------
 #p CCSD(T)/cc-pVTZ
 ------------------

 ------------
 H2O_H2O_1070
 ------------
 Symbolic Z-matrix:
 Charge =  0 Multiplicity = 1

                         Standard orientation:
 ---------------------------------------------------------------------
 Center     Atomic      Atomic             Coordinates (Angstroms)
 Number     Number       Type             X           Y           Z
 ---------------------------------------------------------------------
      1          8           0        0.055315   -1.316253    0.000000
      2          1           0       -0.746248   -1.884586    0.000000
      3          1           0        0.852884   -1.890177    0.000000
      4          8           0        0.055315    1.400529    0.000000
      5          1           0       -0.286193    2.321876    0.000000
      6          1           0       -0.705479    0.778678    0.000000
 ---------------------------------------------------------------------

 SCF Done:  E(RHF) =  -152.105026203     A.U. after   10 cycles
 E2 =    -0.5284620981D+00 EUMP2 =    -0.15263348830068D+03
 CCSD(T)
 CCSD(T)= -0.15266057876D+03

 The electronic state is 1-A'.
 Alpha  occ. eigenvalues --  -20.55983 -20.52887  -1.33453  -1.30194  -0.70853
 Alpha  occ. eigenvalues --   -0.68005  -0.56449  -0.53592  -0.50551  -0.47286
 Alpha virt. eigenvalues --    0.13311   0.17562   0.19721   0.24768   0.52309
 Alpha virt. eigenvalues --    0.56798   0.58014   0.59404   0.70523   0.74684
 Alpha virt. eigenvalues --    0.75429   0.80177   0.82569   0.82582   0.84368

 Mulliken charges:
               1
     1  O   -0.479154
     2  H    0.237531
     3  H    0.254997
     4  O   -0.498568
     5  H    0.226056
     6  H    0.259139
 Sum of Mulliken charges =  -0.00000

 Dipole moment (field-independent basis, Debye):
    X=             -1.7672    Y=             -1.6911    Z=              0.0000  Tot=              2.4460
 Quadrupole moment (field-independent basis, Debye-Ang):
   XX=             -9.7446   YY=             -3.7297   ZZ=            -14.7253
   XY=             -2.4008   XZ=              0.0000   YZ=              0.0000

 Normal termination of Gaussian 16 at Sat Aug 27 01:50:26 2022.
