 Gaussian 16, Revision A.03,
 Gaussian 16:  ES64L-G16RevA.03 25-Dec-2016

 ------------------
 #p CCSD(T)/cc-pVTZ
 ------------------

 ------------
 H2O_H2O_2084
 ------------
 Symbolic Z-matrix:
 Charge =  0 Multiplicity = 1

                         Standard orientation:
 ---------------------------------------------------------------------
 Center     Atomic      Atomic             Coordinates (Angstroms)
 Number     Number       Type             X           Y           Z
 ---------------------------------------------------------------------
      1          8           0        0.031744   -1.896753    0.000000
      2          1           0       -0.768644   -2.466739    0.000000
      3          1           0        0.830496   -2.469030    0.000000
      4          8           0        0.031744    1.915913    0.000000
      5          1           0        0.380576    2.834511    0.000000
      6          1           0       -0.950334    1.947980    0.000000
 ---------------------------------------------------------------------

 SCF Done:  E(RHF) =  -152.105419184     A.U. after   10 cycles
 E2 =    -0.5263786974D+00 EUMP2 =    -0.15263179788141D+03
 CCSD(T)
 CCSD(T)= -0.15265903078D+03

 The electronic state is 1-A'.
 Alpha  occ. eigenvalues --  -20.54756 -20.54433  -1.32036  -1.31708  -0.69455
 Alpha  occ. eigenvalues --   -0.69112  -0.55483  -0.54918  -0.49139  -0.48807
 Alpha virt. eigenvalues --    0.13960   0.15858   0.20461   0.21407   0.53522
 Alpha virt. eigenvalues --    0.55773   0.57851   0.58251   0.62924   0.75537
 Alpha virt. eigenvalues --    0.79256   0.79883   0.80498   0.81007   0.82975

 Mulliken charges:
               1
     1  O   -0.494028
     2  H    0.244400
     3  H    0.250069
     4  O   -0.494088
     5  H    0.243138
     6  H    0.250508
 Sum of Mulliken charges =  -0.00000

 Dipole moment (field-independent basis, Debye):
    X=             -1.0684    Y=             -0.3504    Z=              0.0000  Tot=              1.1244
 Quadrupole moment (field-independent basis, Debye-Ang):
   XX=             -8.4642   YY=              2.4259   ZZ=            -14.7104
   XY=             -1.2995   XZ=              0.0000   YZ=              0.0000

 Normal termination of Gaussian 16 at Sat Aug 27 08:29:46 2022.
