 Gaussian 16, Revision A.03,
 Gaussian 16:  ES64L-G16RevA.03 25-Dec-2016

 ------------------
 #p CCSD(T)/cc-pVTZ
 ------------------

 ------------
 H2O_H2O_1865
 ------------
 Symbolic Z-matrix:
 Charge =  0 Multiplicity = 1

                         Standard orientation:
 ---------------------------------------------------------------------
 Center     Atomic      Atomic             Coordinates (Angstroms)
 Number     Number       Type             X           Y           Z
 ---------------------------------------------------------------------
      1          8           0        0.047546   -1.760042    0.000000
      2          1           0       -0.753331   -2.329341    0.000000
      3          1           0        0.845807   -2.333003    0.000000
      4          8           0        0.047546    1.810590    0.000000
      5          1           0        0.019134    2.792781    0.000000
      6          1           0       -0.872344    1.465180    0.000000
 ---------------------------------------------------------------------

 SCF Done:  E(RHF) =  -152.106360631     A.U. after   10 cycles
 E2 =    -0.5265246707D+00 EUMP2 =    -0.15263288530163D+03
 CCSD(T)
 CCSD(T)= -0.15266008227D+03

 The electronic state is 1-A'.
 Alpha  occ. eigenvalues --  -20.55211 -20.54192  -1.32487  -1.31461  -0.69905
 Alpha  occ. eigenvalues --   -0.68842  -0.55901  -0.54783  -0.49596  -0.48574
 Alpha virt. eigenvalues --    0.13598   0.16243   0.20172   0.22224   0.53606
 Alpha virt. eigenvalues --    0.54868   0.57521   0.58554   0.64233   0.76498
 Alpha virt. eigenvalues --    0.78555   0.78582   0.79975   0.80872   0.85097

 Mulliken charges:
               1
     1  O   -0.494140
     2  H    0.243322
     3  H    0.253024
     4  O   -0.497503
     5  H    0.240313
     6  H    0.254984
 Sum of Mulliken charges =  -0.00000

 Dipole moment (field-independent basis, Debye):
    X=             -1.5887    Y=             -0.9388    Z=              0.0000  Tot=              1.8454
 Quadrupole moment (field-independent basis, Debye-Ang):
   XX=             -9.2419   YY=              0.3211   ZZ=            -14.7138
   XY=             -2.2217   XZ=              0.0000   YZ=              0.0000

 Normal termination of Gaussian 16 at Sat Aug 27 07:14:53 2022.
