 Gaussian 16, Revision A.03,
 Gaussian 16:  ES64L-G16RevA.03 25-Dec-2016

 ------------------
 #p CCSD(T)/cc-pVTZ
 ------------------

 ------------
 H2O_H2O_4673
 ------------
 Symbolic Z-matrix:
 Charge =  0 Multiplicity = 1

                         Standard orientation:
 ---------------------------------------------------------------------
 Center     Atomic      Atomic             Coordinates (Angstroms)
 Number     Number       Type             X           Y           Z
 ---------------------------------------------------------------------
      1          8           0        0.057071   -3.218754    0.000000
      2          1           0       -0.743356   -3.788687    0.000000
      3          1           0        0.855785   -3.791085    0.000000
      4          8           0        0.057071    3.325339    0.000000
      5          1           0       -0.459291    4.161328    0.000000
      6          1           0       -0.566273    2.565768    0.000000
 ---------------------------------------------------------------------

 SCF Done:  E(RHF) =  -152.107635008     A.U. after   10 cycles
 E2 =    -0.5258566185D+00 EUMP2 =    -0.15263349162644D+03
 CCSD(T)
 CCSD(T)= -0.15266070709D+03

 The electronic state is 1-A'.
 Alpha  occ. eigenvalues --  -20.55741 -20.55173  -1.33041  -1.32473  -0.70447
 Alpha  occ. eigenvalues --   -0.69873  -0.56499  -0.55926  -0.50155  -0.49588
 Alpha virt. eigenvalues --    0.13946   0.14526   0.20039   0.20645   0.54112
 Alpha virt. eigenvalues --    0.54697   0.57050   0.57618   0.67659   0.68273
 Alpha virt. eigenvalues --    0.78725   0.79283   0.80152   0.80746   0.82086

 Mulliken charges:
               1
     1  O   -0.510233
     2  H    0.254052
     3  H    0.256182
     4  O   -0.509907
     5  H    0.252643
     6  H    0.257263
 Sum of Mulliken charges =  -0.00000

 Dipole moment (field-independent basis, Debye):
    X=             -1.9626    Y=             -1.8605    Z=              0.0000  Tot=              2.7044
 Quadrupole moment (field-independent basis, Debye-Ang):
   XX=             -9.8553   YY=              3.8288   ZZ=            -14.7126
   XY=             -6.5438   XZ=              0.0000   YZ=              0.0000

 Normal termination of Gaussian 16 at Sat Aug 27 08:40:49 2022.
