 Gaussian 16, Revision A.03,
 Gaussian 16:  ES64L-G16RevA.03 25-Dec-2016

 ------------------
 #p CCSD(T)/cc-pVTZ
 ------------------

 -----------
 H2O_H2O_843
 -----------
 Symbolic Z-matrix:
 Charge =  0 Multiplicity = 1

                         Standard orientation:
 ---------------------------------------------------------------------
 Center     Atomic      Atomic             Coordinates (Angstroms)
 Number     Number       Type             X           Y           Z
 ---------------------------------------------------------------------
      1          8           0        0.052895   -1.204274    0.000000
      2          1           0       -0.748764   -1.772472    0.000000
      3          1           0        0.850367   -1.778333    0.000000
      4          8           0        0.052895    1.274401    0.000000
      5          1           0       -0.165269    2.232477    0.000000
      6          1           0       -0.782646    0.757315    0.000000
 ---------------------------------------------------------------------

 SCF Done:  E(RHF) =  -152.098512345     A.U. after   11 cycles
 E2 =    -0.5296919519D+00 EUMP2 =    -0.15262820429686D+03
 CCSD(T)
 CCSD(T)= -0.15265529950D+03

 The electronic state is 1-A'.
 Alpha  occ. eigenvalues --  -20.55368 -20.52604  -1.33113  -1.29878  -0.70503
 Alpha  occ. eigenvalues --   -0.68027  -0.56078  -0.52678  -0.50205  -0.46896
 Alpha virt. eigenvalues --    0.13549   0.17751   0.19840   0.24390   0.52370
 Alpha virt. eigenvalues --    0.57079   0.59464   0.59997   0.71210   0.74560
 Alpha virt. eigenvalues --    0.77337   0.82884   0.82926   0.84486   0.84615

 Mulliken charges:
               1
     1  O   -0.466867
     2  H    0.229897
     3  H    0.248585
     4  O   -0.479035
     5  H    0.214214
     6  H    0.253206
 Sum of Mulliken charges =  -0.00000

 Dipole moment (field-independent basis, Debye):
    X=             -1.6494    Y=             -1.4154    Z=              0.0000  Tot=              2.1734
 Quadrupole moment (field-independent basis, Debye-Ang):
   XX=             -9.6116   YY=             -4.0990   ZZ=            -14.7233
   XY=             -1.8559   XZ=              0.0000   YZ=              0.0000

 Normal termination of Gaussian 16 at Fri Aug 26 20:30:07 2022.
