 Gaussian 16, Revision A.03,
 Gaussian 16:  ES64L-G16RevA.03 25-Dec-2016

 ------------------
 #p CCSD(T)/cc-pVTZ
 ------------------

 ------------
 H2O_H2O_4367
 ------------
 Symbolic Z-matrix:
 Charge =  0 Multiplicity = 1

                         Standard orientation:
 ---------------------------------------------------------------------
 Center     Atomic      Atomic             Coordinates (Angstroms)
 Number     Number       Type             X           Y           Z
 ---------------------------------------------------------------------
      1          8           0        0.051268   -3.082568    0.000000
      2          1           0       -0.749111   -3.652567    0.000000
      3          1           0        0.850030   -3.654832    0.000000
      4          8           0        0.051268    3.146128    0.000000
      5          1           0       -0.105950    4.116071    0.000000
      6          1           0       -0.815263    2.682847    0.000000
 ---------------------------------------------------------------------

 SCF Done:  E(RHF) =  -152.107308217     A.U. after   10 cycles
 E2 =    -0.5258902774D+00 EUMP2 =    -0.15263319849475D+03
 CCSD(T)
 CCSD(T)= -0.15266042057D+03

 The electronic state is 1-A'.
 Alpha  occ. eigenvalues --  -20.55525 -20.55145  -1.32823  -1.32442  -0.70229
 Alpha  occ. eigenvalues --   -0.69842  -0.56266  -0.55883  -0.49934  -0.49554
 Alpha virt. eigenvalues --    0.14131   0.14532   0.20211   0.20619   0.54332
 Alpha virt. eigenvalues --    0.54735   0.57243   0.57624   0.67908   0.68344
 Alpha virt. eigenvalues --    0.78946   0.79320   0.80378   0.80783   0.82312

 Mulliken charges:
               1
     1  O   -0.508304
     2  H    0.252967
     3  H    0.255338
     4  O   -0.508054
     5  H    0.251922
     6  H    0.256131
 Sum of Mulliken charges =   0.00000

 Dipole moment (field-independent basis, Debye):
    X=             -1.7617    Y=             -1.1110    Z=              0.0000  Tot=              2.0827
 Quadrupole moment (field-independent basis, Debye-Ang):
   XX=             -9.4577   YY=              7.5169   ZZ=            -14.7118
   XY=             -4.9074   XZ=              0.0000   YZ=              0.0000

 Normal termination of Gaussian 16 at Sat Aug 27 06:54:50 2022.
