 Gaussian 16, Revision A.03,
 Gaussian 16:  ES64L-G16RevA.03 25-Dec-2016

 ------------------
 #p CCSD(T)/cc-pVTZ
 ------------------

 ------------
 H2O_H2O_2378
 ------------
 Symbolic Z-matrix:
 Charge =  0 Multiplicity = 1

                         Standard orientation:
 ---------------------------------------------------------------------
 Center     Atomic      Atomic             Coordinates (Angstroms)
 Number     Number       Type             X           Y           Z
 ---------------------------------------------------------------------
      1          8           0        0.011143   -2.065524    0.000000
      2          1           0       -0.788693   -2.636285    0.000000
      3          1           0        0.810449   -2.637027    0.000000
      4          8           0        0.011143    2.067709    0.000000
      5          1           0        0.684260    2.783542    0.000000
      6          1           0       -0.884300    2.472293    0.000000
 ---------------------------------------------------------------------

 SCF Done:  E(RHF) =  -152.105342404     A.U. after   10 cycles
 E2 =    -0.5262269111D+00 EUMP2 =    -0.15263156931548D+03
 CCSD(T)
 CCSD(T)= -0.15265881821D+03

 The electronic state is 1-A'.
 Alpha  occ. eigenvalues --  -20.54648 -20.54617  -1.31934  -1.31902  -0.69350
 Alpha  occ. eigenvalues --   -0.69316  -0.55388  -0.55115  -0.49039  -0.48993
 Alpha virt. eigenvalues --    0.14228   0.15490   0.20623   0.21051   0.54494
 Alpha virt. eigenvalues --    0.55908   0.57868   0.58091   0.63275   0.73997
 Alpha virt. eigenvalues --    0.79578   0.80122   0.80977   0.81371   0.81869

 Mulliken charges:
               1
     1  O   -0.495908
     2  H    0.247153
     3  H    0.248776
     4  O   -0.495833
     5  H    0.246925
     6  H    0.248887
 Sum of Mulliken charges =  -0.00000

 Dipole moment (field-independent basis, Debye):
    X=             -0.3774    Y=             -0.0394    Z=              0.0000  Tot=              0.3794
 Quadrupole moment (field-independent basis, Debye-Ang):
   XX=             -7.9089   YY=              4.3224   ZZ=            -14.7095
   XY=             -0.4567   XZ=              0.0000   YZ=              0.0000

 Normal termination of Gaussian 16 at Sat Aug 27 10:13:45 2022.
