 Gaussian 16, Revision A.03,
 Gaussian 16:  ES64L-G16RevA.03 25-Dec-2016

 ------------------
 #p CCSD(T)/cc-pVTZ
 ------------------

 ------------
 H2O_H2O_4204
 ------------
 Symbolic Z-matrix:
 Charge =  0 Multiplicity = 1

                         Standard orientation:
 ---------------------------------------------------------------------
 Center     Atomic      Atomic             Coordinates (Angstroms)
 Number     Number       Type             X           Y           Z
 ---------------------------------------------------------------------
      1          8           0        0.014783   -3.035204    0.000000
      2          1           0       -0.785027   -3.606001    0.000000
      3          1           0        0.814114   -3.606671    0.000000
      4          8           0        0.014783    3.039084    0.000000
      5          1           0        0.639608    3.797438    0.000000
      6          1           0       -0.905220    3.384197    0.000000
 ---------------------------------------------------------------------

 SCF Done:  E(RHF) =  -152.106763316     A.U. after   10 cycles
 E2 =    -0.5259384067D+00 EUMP2 =    -0.15263270172297D+03
 CCSD(T)
 CCSD(T)= -0.15265993540D+03

 The electronic state is 1-A'.
 Alpha  occ. eigenvalues --  -20.55172 -20.55148  -1.32468  -1.32443  -0.69875
 Alpha  occ. eigenvalues --   -0.69850  -0.55885  -0.55861  -0.49574  -0.49550
 Alpha virt. eigenvalues --    0.14436   0.14491   0.20489   0.20522   0.54693
 Alpha virt. eigenvalues --    0.54723   0.57555   0.57582   0.68305   0.68430
 Alpha virt. eigenvalues --    0.79304   0.79328   0.80749   0.80776   0.82679

 Mulliken charges:
               1
     1  O   -0.505065
     2  H    0.252158
     3  H    0.252907
     4  O   -0.505037
     5  H    0.251995
     6  H    0.253043
 Sum of Mulliken charges =  -0.00000

 Dipole moment (field-independent basis, Debye):
    X=             -0.5075    Y=             -0.0678    Z=              0.0000  Tot=              0.5121
 Quadrupole moment (field-independent basis, Debye-Ang):
   XX=             -7.9417   YY=             11.9815   ZZ=            -14.7106
   XY=             -1.0978   XZ=              0.0000   YZ=              0.0000

 Normal termination of Gaussian 16 at Sat Aug 27 05:58:41 2022.
