 Gaussian 16, Revision A.03,
 Gaussian 16:  ES64L-G16RevA.03 25-Dec-2016

 ------------------
 #p CCSD(T)/cc-pVTZ
 ------------------

 ------------
 H2O_H2O_4670
 ------------
 Symbolic Z-matrix:
 Charge =  0 Multiplicity = 1

                         Standard orientation:
 ---------------------------------------------------------------------
 Center     Atomic      Atomic             Coordinates (Angstroms)
 Number     Number       Type             X           Y           Z
 ---------------------------------------------------------------------
      1          8           0        0.055228   -3.230746    0.000000
      2          1           0       -0.745170   -3.800718    0.000000
      3          1           0        0.853970   -3.803038    0.000000
      4          8           0        0.055228    3.315249    0.000000
      5          1           0       -0.288163    4.235895    0.000000
      6          1           0       -0.704292    2.691843    0.000000
 ---------------------------------------------------------------------

 SCF Done:  E(RHF) =  -152.107480780     A.U. after   10 cycles
 E2 =    -0.5258707401D+00 EUMP2 =    -0.15263335151977D+03
 CCSD(T)
 CCSD(T)= -0.15266057020D+03

 The electronic state is 1-A'.
 Alpha  occ. eigenvalues --  -20.55637 -20.55184  -1.32937  -1.32483  -0.70343
 Alpha  occ. eigenvalues --   -0.69883  -0.56387  -0.55930  -0.50049  -0.49596
 Alpha virt. eigenvalues --    0.14040   0.14501   0.20123   0.20605   0.54218
 Alpha virt. eigenvalues --    0.54690   0.57143   0.57597   0.67788   0.68271
 Alpha virt. eigenvalues --    0.78831   0.79277   0.80260   0.80740   0.82188

 Mulliken charges:
               1
     1  O   -0.509319
     2  H    0.253584
     3  H    0.255735
     4  O   -0.509060
     5  H    0.252431
     6  H    0.256629
 Sum of Mulliken charges =   0.00000

 Dipole moment (field-independent basis, Debye):
    X=             -1.8992    Y=             -1.4749    Z=              0.0000  Tot=              2.4046
 Quadrupole moment (field-independent basis, Debye-Ang):
   XX=             -9.7243   YY=              6.2670   ZZ=            -14.7122
   XY=             -5.9504   XZ=              0.0000   YZ=              0.0000

 Normal termination of Gaussian 16 at Sat Aug 27 08:39:45 2022.
