 Gaussian 16, Revision A.03,
 Gaussian 16:  ES64L-G16RevA.03 25-Dec-2016

 ------------------
 #p CCSD(T)/cc-pVTZ
 ------------------

 ------------
 H2O_H2O_3051
 ------------
 Symbolic Z-matrix:
 Charge =  0 Multiplicity = 1

                         Standard orientation:
 ---------------------------------------------------------------------
 Center     Atomic      Atomic             Coordinates (Angstroms)
 Number     Number       Type             X           Y           Z
 ---------------------------------------------------------------------
      1          8           0        0.003735   -2.425568    0.000000
      2          1           0       -0.795911   -2.996594    0.000000
      3          1           0        0.803231   -2.996806    0.000000
      4          8           0        0.003735    2.425811    0.000000
      5          1           0        0.764324    3.047914    0.000000
      6          1           0       -0.831409    2.943536    0.000000
 ---------------------------------------------------------------------

 SCF Done:  E(RHF) =  -152.106040281     A.U. after   10 cycles
 E2 =    -0.5260425746D+00 EUMP2 =    -0.15263208285560D+03
 CCSD(T)
 CCSD(T)= -0.15265932917D+03

 The electronic state is 1-A'.
 Alpha  occ. eigenvalues --  -20.54880 -20.54878  -1.32172  -1.32170  -0.69583
 Alpha  occ. eigenvalues --   -0.69580  -0.55573  -0.55529  -0.49275  -0.49270
 Alpha virt. eigenvalues --    0.14428   0.14933   0.20609   0.20766   0.54848
 Alpha virt. eigenvalues --    0.55138   0.57755   0.57832   0.67097   0.70349
 Alpha virt. eigenvalues --    0.79569   0.79634   0.81011   0.81111   0.82616

 Mulliken charges:
               1
     1  O   -0.500810
     2  H    0.250228
     3  H    0.250582
     4  O   -0.500805
     5  H    0.250177
     6  H    0.250627
 Sum of Mulliken charges =  -0.00000

 Dipole moment (field-independent basis, Debye):
    X=             -0.1275    Y=             -0.0043    Z=              0.0000  Tot=              0.1276
 Quadrupole moment (field-independent basis, Debye-Ang):
   XX=             -7.8254   YY=              7.3204   ZZ=            -14.7097
   XY=             -0.1958   XZ=              0.0000   YZ=              0.0000

 Normal termination of Gaussian 16 at Fri Aug 26 18:53:33 2022.
