 Gaussian 16, Revision A.03,
 Gaussian 16:  ES64L-G16RevA.03 25-Dec-2016

 ------------------
 #p CCSD(T)/cc-pVTZ
 ------------------

 ------------
 H2O_H2O_1999
 ------------
 Symbolic Z-matrix:
 Charge =  0 Multiplicity = 1

                         Standard orientation:
 ---------------------------------------------------------------------
 Center     Atomic      Atomic             Coordinates (Angstroms)
 Number     Number       Type             X           Y           Z
 ---------------------------------------------------------------------
      1          8           0        0.057265   -1.792104    0.000000
      2          1           0       -0.743822   -2.361108    0.000000
      3          1           0        0.855314   -2.365360    0.000000
      4          8           0        0.057265    1.906027    0.000000
      5          1           0       -0.511739    2.707114    0.000000
      6          1           0       -0.515991    1.107977    0.000000
 ---------------------------------------------------------------------

 SCF Done:  E(RHF) =  -152.109500020     A.U. after   10 cycles
 E2 =    -0.5263573082D+00 EUMP2 =    -0.15263585732840D+03
 CCSD(T)
 CCSD(T)= -0.15266298373D+03

 The electronic state is 1-A'.
 Alpha  occ. eigenvalues --  -20.56354 -20.54012  -1.33618  -1.31322  -0.71020
 Alpha  occ. eigenvalues --   -0.68692  -0.57121  -0.54804  -0.50743  -0.48456
 Alpha virt. eigenvalues --    0.12865   0.16464   0.19676   0.24124   0.53215
 Alpha virt. eigenvalues --    0.55779   0.56509   0.58282   0.67072   0.73888
 Alpha virt. eigenvalues --    0.77678   0.78957   0.79443   0.80573   0.84203

 Mulliken charges:
               1
     1  O   -0.502478
     2  H    0.249915
     3  H    0.259075
     4  O   -0.516469
     5  H    0.245029
     6  H    0.264928
 Sum of Mulliken charges =  -0.00000

 Dipole moment (field-independent basis, Debye):
    X=             -1.9244    Y=             -2.1349    Z=              0.0000  Tot=              2.8742
 Quadrupole moment (field-independent basis, Debye-Ang):
   XX=             -9.8601   YY=             -2.7276   ZZ=            -14.7205
   XY=             -3.9361   XZ=              0.0000   YZ=              0.0000

 Normal termination of Gaussian 16 at Sat Aug 27 08:01:08 2022.
