 Gaussian 16, Revision A.03,
 Gaussian 16:  ES64L-G16RevA.03 25-Dec-2016

 ------------------
 #p CCSD(T)/cc-pVTZ
 ------------------

 -----------
 H2O_H2O_744
 -----------
 Symbolic Z-matrix:
 Charge =  0 Multiplicity = 1

                         Standard orientation:
 ---------------------------------------------------------------------
 Center     Atomic      Atomic             Coordinates (Angstroms)
 Number     Number       Type             X           Y           Z
 ---------------------------------------------------------------------
      1          8           0        0.054234   -1.147311    0.000000
      2          1           0       -0.747573   -1.715300    0.000000
      3          1           0        0.851557   -1.721578    0.000000
      4          8           0        0.054234    1.224395    0.000000
      5          1           0       -0.225880    2.166225    0.000000
      6          1           0       -0.745848    0.653978    0.000000
 ---------------------------------------------------------------------

 SCF Done:  E(RHF) =  -152.094329536     A.U. after   11 cycles
 E2 =    -0.5307597462D+00 EUMP2 =    -0.15262508928170D+03
 CCSD(T)
 CCSD(T)= -0.15265209965D+03

 The electronic state is 1-A'.
 Alpha  occ. eigenvalues --  -20.55557 -20.52187  -1.33571  -1.29502  -0.70949
 Alpha  occ. eigenvalues --   -0.68228  -0.55754  -0.52412  -0.50598  -0.46505
 Alpha virt. eigenvalues --    0.13450   0.18026   0.19717   0.24880   0.51779
 Alpha virt. eigenvalues --    0.56767   0.60090   0.61073   0.71517   0.74252
 Alpha virt. eigenvalues --    0.77713   0.82871   0.83928   0.84268   0.87362

 Mulliken charges:
               1
     1  O   -0.456071
     2  H    0.226157
     3  H    0.245857
     4  O   -0.479857
     5  H    0.209222
     6  H    0.254692
 Sum of Mulliken charges =  -0.00000

 Dipole moment (field-independent basis, Debye):
    X=             -1.6698    Y=             -1.5906    Z=              0.0000  Tot=              2.3061
 Quadrupole moment (field-independent basis, Debye-Ang):
   XX=             -9.6936   YY=             -4.7105   ZZ=            -14.7182
   XY=             -1.9250   XZ=              0.0000   YZ=              0.0000

 Normal termination of Gaussian 16 at Fri Aug 26 19:36:58 2022.
