 Gaussian 16, Revision A.03,
 Gaussian 16:  ES64L-G16RevA.03 25-Dec-2016

 ------------------
 #p CCSD(T)/cc-pVTZ
 ------------------

 -----------
 H2O_H2O_467
 -----------
 Symbolic Z-matrix:
 Charge =  0 Multiplicity = 1

                         Standard orientation:
 ---------------------------------------------------------------------
 Center     Atomic      Atomic             Coordinates (Angstroms)
 Number     Number       Type             X           Y           Z
 ---------------------------------------------------------------------
      1          8           0        0.051358   -1.008558    0.000000
      2          1           0       -0.750627   -1.576295    0.000000
      3          1           0        0.848501   -1.583074    0.000000
      4          8           0        0.051358    1.071828    0.000000
      5          1           0       -0.103121    2.042211    0.000000
      6          1           0       -0.816478    0.610994    0.000000
 ---------------------------------------------------------------------

 SCF Done:  E(RHF) =  -152.068609267     A.U. after   11 cycles
 E2 =    -0.5343811032D+00 EUMP2 =    -0.15260299037040D+03
 CCSD(T)
 CCSD(T)= -0.15262981393D+03

 The electronic state is 1-A'.
 Alpha  occ. eigenvalues --  -20.54511 -20.51660  -1.33813  -1.28744  -0.71180
 Alpha  occ. eigenvalues --   -0.68590  -0.55953  -0.50659  -0.49266  -0.45608
 Alpha virt. eigenvalues --    0.13728   0.18336   0.19793   0.24491   0.52054
 Alpha virt. eigenvalues --    0.56871   0.59908   0.63070   0.71999   0.75279
 Alpha virt. eigenvalues --    0.79640   0.82693   0.83908   0.84309   0.87973

 Mulliken charges:
               1
     1  O   -0.427740
     2  H    0.207800
     3  H    0.232223
     4  O   -0.441265
     5  H    0.182831
     6  H    0.246152
 Sum of Mulliken charges =  -0.00000

 Dipole moment (field-independent basis, Debye):
    X=             -1.5061    Y=             -1.3183    Z=              0.0000  Tot=              2.0016
 Quadrupole moment (field-independent basis, Debye-Ang):
   XX=             -9.5578   YY=             -5.7069   ZZ=            -14.7025
   XY=             -1.3522   XZ=              0.0000   YZ=              0.0000

 Normal termination of Gaussian 16 at Fri Aug 26 16:44:18 2022.
