 Gaussian 16, Revision A.03,
 Gaussian 16:  ES64L-G16RevA.03 25-Dec-2016

 ------------------
 #p CCSD(T)/cc-pVTZ
 ------------------

 -----------
 H2O_H2O_542
 -----------
 Symbolic Z-matrix:
 Charge =  0 Multiplicity = 1

                         Standard orientation:
 ---------------------------------------------------------------------
 Center     Atomic      Atomic             Coordinates (Angstroms)
 Number     Number       Type             X           Y           Z
 ---------------------------------------------------------------------
      1          8           0        0.051353   -1.048437    0.000000
      2          1           0       -0.750543   -1.616300    0.000000
      3          1           0        0.848586   -1.622828    0.000000
      4          8           0        0.051353    1.111723    0.000000
      5          1           0       -0.103278    2.082082    0.000000
      6          1           0       -0.816410    0.650753    0.000000
 ---------------------------------------------------------------------

 SCF Done:  E(RHF) =  -152.078253041     A.U. after   11 cycles
 E2 =    -0.5330064691D+00 EUMP2 =    -0.15261125951049D+03
 CCSD(T)
 CCSD(T)= -0.15263818996D+03

 The electronic state is 1-A'.
 Alpha  occ. eigenvalues --  -20.54669 -20.51903  -1.33466  -1.29056  -0.70820
 Alpha  occ. eigenvalues --   -0.68385  -0.56027  -0.50421  -0.50178  -0.45943
 Alpha virt. eigenvalues --    0.13715   0.18187   0.19830   0.24431   0.52153
 Alpha virt. eigenvalues --    0.56997   0.59777   0.62441   0.71776   0.75004
 Alpha virt. eigenvalues --    0.79255   0.82873   0.83757   0.84441   0.87835

 Mulliken charges:
               1
     1  O   -0.438853
     2  H    0.213989
     3  H    0.236109
     4  O   -0.449232
     5  H    0.190561
     6  H    0.247426
 Sum of Mulliken charges =   0.00000

 Dipole moment (field-independent basis, Debye):
    X=             -1.5290    Y=             -1.3050    Z=              0.0000  Tot=              2.0102
 Quadrupole moment (field-independent basis, Debye-Ang):
   XX=             -9.5497   YY=             -5.3026   ZZ=            -14.7109
   XY=             -1.4221   XZ=              0.0000   YZ=              0.0000

 0642\MP4DQ=-152.6189912\MP4SDQ=-152.6223585\CCSD=-152.6216523\CCSD(T)=
 Normal termination of Gaussian 16 at Fri Aug 26 17:29:07 2022.
