 Gaussian 16, Revision A.03,
 Gaussian 16:  ES64L-G16RevA.03 25-Dec-2016

 ------------------
 #p CCSD(T)/cc-pVTZ
 ------------------

 ------------
 H2O_H2O_1245
 ------------
 Symbolic Z-matrix:
 Charge =  0 Multiplicity = 1

                         Standard orientation:
 ---------------------------------------------------------------------
 Center     Atomic      Atomic             Coordinates (Angstroms)
 Number     Number       Type             X           Y           Z
 ---------------------------------------------------------------------
      1          8           0        0.055305   -1.409312    0.000000
      2          1           0       -0.746130   -1.977825    0.000000
      3          1           0        0.853003   -1.983057    0.000000
      4          8           0        0.055305    1.493613    0.000000
      5          1           0       -0.286409    2.414882    0.000000
      6          1           0       -0.705349    0.871591    0.000000
 ---------------------------------------------------------------------

 SCF Done:  E(RHF) =  -152.106870073     A.U. after   10 cycles
 E2 =    -0.5277223491D+00 EUMP2 =    -0.15263459242247D+03
 CCSD(T)
 CCSD(T)= -0.15266170810D+03

 The electronic state is 1-A'.
 Alpha  occ. eigenvalues --  -20.55978 -20.53231  -1.33336  -1.30522  -0.70744
 Alpha  occ. eigenvalues --   -0.68088  -0.56579  -0.53944  -0.50447  -0.47635
 Alpha virt. eigenvalues --    0.13302   0.17283   0.19757   0.24470   0.52865
 Alpha virt. eigenvalues --    0.56478   0.56993   0.58829   0.69219   0.75079
 Alpha virt. eigenvalues --    0.75477   0.78140   0.81223   0.82253   0.84455

 Mulliken charges:
               1
     1  O   -0.485304
     2  H    0.239983
     3  H    0.256476
     4  O   -0.501611
     5  H    0.231246
     6  H    0.259209
 Sum of Mulliken charges =  -0.00000

 Dipole moment (field-independent basis, Debye):
    X=             -1.7919    Y=             -1.6613    Z=              0.0000  Tot=              2.4435
 Quadrupole moment (field-independent basis, Debye-Ang):
   XX=             -9.7395   YY=             -3.1549   ZZ=            -14.7246
   XY=             -2.5671   XZ=              0.0000   YZ=              0.0000

 Normal termination of Gaussian 16 at Sat Aug 27 03:18:54 2022.
