 Gaussian 16, Revision A.03,
 Gaussian 16:  ES64L-G16RevA.03 25-Dec-2016

 ------------------
 #p CCSD(T)/cc-pVTZ
 ------------------

 ------------
 H2O_H2O_4666
 ------------
 Symbolic Z-matrix:
 Charge =  0 Multiplicity = 1

                         Standard orientation:
 ---------------------------------------------------------------------
 Center     Atomic      Atomic             Coordinates (Angstroms)
 Number     Number       Type             X           Y           Z
 ---------------------------------------------------------------------
      1          8           0        0.049499   -3.245691    0.000000
      2          1           0       -0.750815   -3.815782    0.000000
      3          1           0        0.848326   -3.817862    0.000000
      4          8           0        0.049499    3.302675    0.000000
      5          1           0       -0.044058    4.280813    0.000000
      6          1           0       -0.845430    2.896956    0.000000
 ---------------------------------------------------------------------

 SCF Done:  E(RHF) =  -152.107284105     A.U. after   10 cycles
 E2 =    -0.5258881145D+00 EUMP2 =    -0.15263317221991D+03
 CCSD(T)
 CCSD(T)= -0.15266039508D+03

 The electronic state is 1-A'.
 Alpha  occ. eigenvalues --  -20.55504 -20.55197  -1.32802  -1.32494  -0.70208
 Alpha  occ. eigenvalues --   -0.69896  -0.56243  -0.55935  -0.49913  -0.49606
 Alpha virt. eigenvalues --    0.14160   0.14471   0.20230   0.20555   0.54355
 Alpha virt. eigenvalues --    0.54679   0.57263   0.57570   0.67951   0.68273
 Alpha virt. eigenvalues --    0.78967   0.79270   0.80401   0.80729   0.82326

 Mulliken charges:
               1
     1  O   -0.508151
     2  H    0.253081
     3  H    0.255070
     4  O   -0.507962
     5  H    0.252253
     6  H    0.255710
 Sum of Mulliken charges =  -0.00000

 Dipole moment (field-independent basis, Debye):
    X=             -1.7020    Y=             -0.9942    Z=              0.0000  Tot=              1.9711
 Quadrupole moment (field-independent basis, Debye-Ang):
   XX=             -9.3454   YY=              9.0902   ZZ=            -14.7117
   XY=             -4.9056   XZ=              0.0000   YZ=              0.0000

 Normal termination of Gaussian 16 at Sat Aug 27 08:38:24 2022.
