 Gaussian 16, Revision A.03,
 Gaussian 16:  ES64L-G16RevA.03 25-Dec-2016

 ------------------
 #p CCSD(T)/cc-pVTZ
 ------------------

 ------------
 H2O_H2O_1538
 ------------
 Symbolic Z-matrix:
 Charge =  0 Multiplicity = 1

                         Standard orientation:
 ---------------------------------------------------------------------
 Center     Atomic      Atomic             Coordinates (Angstroms)
 Number     Number       Type             X           Y           Z
 ---------------------------------------------------------------------
      1          8           0        0.042984   -1.593621    0.000000
      2          1           0       -0.757893   -2.162919    0.000000
      3          1           0        0.841244   -2.166584    0.000000
      4          8           0        0.042984    1.632336    0.000000
      5          1           0        0.143019    2.609832    0.000000
      6          1           0       -0.914122    1.409953    0.000000
 ---------------------------------------------------------------------

 SCF Done:  E(RHF) =  -152.105014862     A.U. after   10 cycles
 E2 =    -0.5269612009D+00 EUMP2 =    -0.15263197606301D+03
 CCSD(T)
 CCSD(T)= -0.15265919034D+03

 The electronic state is 1-A'.
 Alpha  occ. eigenvalues --  -20.54872 -20.53953  -1.32160  -1.31209  -0.69585
 Alpha  occ. eigenvalues --   -0.68605  -0.55739  -0.54230  -0.49276  -0.48302
 Alpha virt. eigenvalues --    0.13836   0.16545   0.20248   0.22360   0.53607
 Alpha virt. eigenvalues --    0.56004   0.57761   0.58635   0.64891   0.76671
 Alpha virt. eigenvalues --    0.77929   0.78385   0.79058   0.81817   0.85352

 Mulliken charges:
               1
     1  O   -0.485447
     2  H    0.238345
     3  H    0.249454
     4  O   -0.486731
     5  H    0.234306
     6  H    0.250074
 Sum of Mulliken charges =  -0.00000

 Dipole moment (field-independent basis, Debye):
    X=             -1.4175    Y=             -0.7303    Z=              0.0000  Tot=              1.5946
 Quadrupole moment (field-independent basis, Debye-Ang):
   XX=             -9.0047   YY=             -0.4361   ZZ=            -14.7138
   XY=             -1.6042   XZ=              0.0000   YZ=              0.0000

 Normal termination of Gaussian 16 at Sat Aug 27 05:21:07 2022.
