 Gaussian 16, Revision A.03,
 Gaussian 16:  ES64L-G16RevA.03 25-Dec-2016

 ------------------
 #p CCSD(T)/cc-pVTZ
 ------------------

 ------------
 H2O_H2O_3248
 ------------
 Symbolic Z-matrix:
 Charge =  0 Multiplicity = 1

                         Standard orientation:
 ---------------------------------------------------------------------
 Center     Atomic      Atomic             Coordinates (Angstroms)
 Number     Number       Type             X           Y           Z
 ---------------------------------------------------------------------
      1          8           0        0.057095   -2.460915    0.000000
      2          1           0       -0.743589   -3.030485    0.000000
      3          1           0        0.855550   -3.033606    0.000000
      4          8           0        0.057095    2.567448    0.000000
      5          1           0       -0.458889    3.403669    0.000000
      6          1           0       -0.566592    1.808157    0.000000
 ---------------------------------------------------------------------

 SCF Done:  E(RHF) =  -152.107950539     A.U. after   10 cycles
 E2 =    -0.5259043628D+00 EUMP2 =    -0.15263385490169D+03
 CCSD(T)
 CCSD(T)= -0.15266105552D+03

 The electronic state is 1-A'.
 Alpha  occ. eigenvalues --  -20.55846 -20.54820  -1.33142  -1.32120  -0.70547
 Alpha  occ. eigenvalues --   -0.69508  -0.56611  -0.55577  -0.50257  -0.49239
 Alpha virt. eigenvalues --    0.13457   0.15145   0.19951   0.21241   0.53972
 Alpha virt. eigenvalues --    0.54890   0.56984   0.57872   0.66845   0.69651
 Alpha virt. eigenvalues --    0.78632   0.79619   0.79813   0.80300   0.82795

 Mulliken charges:
               1
     1  O   -0.511182
     2  H    0.253487
     3  H    0.258058
     4  O   -0.510928
     5  H    0.250432
     6  H    0.260134
 Sum of Mulliken charges =  -0.00000

 Dipole moment (field-independent basis, Debye):
    X=             -1.9530    Y=             -1.8905    Z=              0.0000  Tot=              2.7181
 Quadrupole moment (field-independent basis, Debye-Ang):
   XX=             -9.8532   YY=              0.6048   ZZ=            -14.7140
   XY=             -5.0695   XZ=              0.0000   YZ=              0.0000

 Normal termination of Gaussian 16 at Fri Aug 26 20:42:57 2022.
