 Gaussian 16, Revision A.03,
 Gaussian 16:  ES64L-G16RevA.03 25-Dec-2016

 ------------------
 #p CCSD(T)/cc-pVTZ
 ------------------

 ------------
 H2O_H2O_3178
 ------------
 Symbolic Z-matrix:
 Charge =  0 Multiplicity = 1

                         Standard orientation:
 ---------------------------------------------------------------------
 Center     Atomic      Atomic             Coordinates (Angstroms)
 Number     Number       Type             X           Y           Z
 ---------------------------------------------------------------------
      1          8           0        0.011143   -2.490992    0.000000
      2          1           0       -0.788648   -3.061816    0.000000
      3          1           0        0.810494   -3.062432    0.000000
      4          8           0        0.011143    2.493178    0.000000
      5          1           0        0.684203    3.209065    0.000000
      6          1           0       -0.884332    2.897692    0.000000
 ---------------------------------------------------------------------

 SCF Done:  E(RHF) =  -152.106174939     A.U. after   10 cycles
 E2 =    -0.5260223100D+00 EUMP2 =    -0.15263219724913D+03
 CCSD(T)
 CCSD(T)= -0.15265944138D+03

 The electronic state is 1-A'.
 Alpha  occ. eigenvalues --  -20.54935 -20.54915  -1.32228  -1.32207  -0.69638
 Alpha  occ. eigenvalues --   -0.69616  -0.55623  -0.55587  -0.49330  -0.49310
 Alpha virt. eigenvalues --    0.14435   0.14858   0.20590   0.20732   0.54836
 Alpha virt. eigenvalues --    0.55055   0.57723   0.57793   0.67473   0.69879
 Alpha virt. eigenvalues --    0.79532   0.79578   0.80963   0.81064   0.82701

 Mulliken charges:
               1
     1  O   -0.501612
     2  H    0.250316
     3  H    0.251298
     4  O   -0.501569
     5  H    0.250147
     6  H    0.251421
 Sum of Mulliken charges =  -0.00000

 Dipole moment (field-independent basis, Debye):
    X=             -0.3807    Y=             -0.0386    Z=              0.0000  Tot=              0.3826
 Quadrupole moment (field-independent basis, Debye-Ang):
   XX=             -7.8923   YY=              7.7558   ZZ=            -14.7099
   XY=             -0.6158   XZ=              0.0000   YZ=              0.0000

 Normal termination of Gaussian 16 at Fri Aug 26 20:08:47 2022.
