 Gaussian 16, Revision A.03,
 Gaussian 16:  ES64L-G16RevA.03 25-Dec-2016

 ------------------
 #p CCSD(T)/cc-pVTZ
 ------------------

 -----------
 H2O_H2O_136
 -----------
 Symbolic Z-matrix:
 Charge =  0 Multiplicity = 1

                         Standard orientation:
 ---------------------------------------------------------------------
 Center     Atomic      Atomic             Coordinates (Angstroms)
 Number     Number       Type             X           Y           Z
 ---------------------------------------------------------------------
      1          8           0        0.037710   -0.854832    0.000000
      2          1           0       -0.763986   -1.422977    0.000000
      3          1           0        0.835145   -1.428943    0.000000
      4          8           0        0.037710    0.882897    0.000000
      5          1           0        0.265853    1.838646    0.000000
      6          1           0       -0.940372    0.788751    0.000000
 ---------------------------------------------------------------------

 SCF Done:  E(RHF) =  -151.984466732     A.U. after   12 cycles
 E2 =    -0.5439297928D+00 EUMP2 =    -0.15252839652519D+03
 CCSD(T)
 CCSD(T)= -0.15255410301D+03

 The electronic state is 1-A'.
 Alpha  occ. eigenvalues --  -20.52330 -20.51400  -1.35580  -1.27245  -0.71913
 Alpha  occ. eigenvalues --   -0.68563  -0.60454  -0.51886  -0.43802  -0.39277
 Alpha virt. eigenvalues --    0.14201   0.18877   0.19867   0.23641   0.53621
 Alpha virt. eigenvalues --    0.56210   0.58631   0.65229   0.72299   0.77785
 Alpha virt. eigenvalues --    0.80047   0.82377   0.83019   0.84746   0.88807

 Mulliken charges:
               1
     1  O   -0.380952
     2  H    0.179005
     3  H    0.202903
     4  O   -0.360085
     5  H    0.130270
     6  H    0.228859
 Sum of Mulliken charges =  -0.00000

 Dipole moment (field-independent basis, Debye):
    X=             -1.0345    Y=             -0.6438    Z=              0.0000  Tot=              1.2185
 Quadrupole moment (field-independent basis, Debye-Ang):
   XX=             -9.0163   YY=             -7.8385   ZZ=            -14.6959
   XY=             -0.5140   XZ=              0.0000   YZ=              0.0000

 Normal termination of Gaussian 16 at Fri Aug 26 13:10:38 2022.
