 Gaussian 16, Revision A.03,
 Gaussian 16:  ES64L-G16RevA.03 25-Dec-2016

 ------------------
 #p CCSD(T)/cc-pVTZ
 ------------------

 -----------
 H2O_H2O_942
 -----------
 Symbolic Z-matrix:
 Charge =  0 Multiplicity = 1

                         Standard orientation:
 ---------------------------------------------------------------------
 Center     Atomic      Atomic             Coordinates (Angstroms)
 Number     Number       Type             X           Y           Z
 ---------------------------------------------------------------------
      1          8           0        0.051332   -1.261135    0.000000
      2          1           0       -0.750183   -1.829537    0.000000
      3          1           0        0.848950   -1.834991    0.000000
      4          8           0        0.051332    1.324491    0.000000
      5          1           0       -0.103951    2.294745    0.000000
      6          1           0       -0.816122    0.862938    0.000000
 ---------------------------------------------------------------------

 SCF Done:  E(RHF) =  -152.100974806     A.U. after   11 cycles
 E2 =    -0.5289173885D+00 EUMP2 =    -0.15262989219481D+03
 CCSD(T)
 CCSD(T)= -0.15265703955D+03

 The electronic state is 1-A'.
 Alpha  occ. eigenvalues --  -20.55206 -20.52927  -1.32777  -1.30181  -0.70181
 Alpha  occ. eigenvalues --   -0.67985  -0.56182  -0.52918  -0.49899  -0.47213
 Alpha virt. eigenvalues --    0.13639   0.17508   0.19937   0.23959   0.52917
 Alpha virt. eigenvalues --    0.57308   0.58873   0.59179   0.70825   0.75043
 Alpha virt. eigenvalues --    0.76880   0.80287   0.82913   0.83049   0.84883

 Mulliken charges:
               1
     1  O   -0.473144
     2  H    0.231880
     3  H    0.250149
     4  O   -0.478716
     5  H    0.218292
     6  H    0.251539
 Sum of Mulliken charges =  -0.00000

 Dipole moment (field-independent basis, Debye):
    X=             -1.6185    Y=             -1.2579    Z=              0.0000  Tot=              2.0499
 Quadrupole moment (field-independent basis, Debye-Ang):
   XX=             -9.5142   YY=             -3.5058   ZZ=            -14.7241
   XY=             -1.7810   XZ=              0.0000   YZ=              0.0000

 Normal termination of Gaussian 16 at Fri Aug 26 21:22:56 2022.
