 Gaussian 16, Revision A.03,
 Gaussian 16:  ES64L-G16RevA.03 25-Dec-2016

 ------------------
 #p CCSD(T)/cc-pVTZ
 ------------------

 ------------
 H2O_H2O_2486
 ------------
 Symbolic Z-matrix:
 Charge =  0 Multiplicity = 1

                         Standard orientation:
 ---------------------------------------------------------------------
 Center     Atomic      Atomic             Coordinates (Angstroms)
 Number     Number       Type             X           Y           Z
 ---------------------------------------------------------------------
      1          8           0        0.037679   -2.104561    0.000000
      2          1           0       -0.762765   -2.674469    0.000000
      3          1           0        0.836375   -2.676916    0.000000
      4          8           0        0.037679    2.132792    0.000000
      5          1           0        0.263718    3.089041    0.000000
      6          1           0       -0.940193    2.036493    0.000000
 ---------------------------------------------------------------------

 SCF Done:  E(RHF) =  -152.106137862     A.U. after   10 cycles
 E2 =    -0.5261476652D+00 EUMP2 =    -0.15263228552676D+03
 CCSD(T)
 CCSD(T)= -0.15265951799D+03

 The electronic state is 1-A'.
 Alpha  occ. eigenvalues --  -20.55007 -20.54626  -1.32295  -1.31910  -0.69708
 Alpha  occ. eigenvalues --   -0.69309  -0.55686  -0.55275  -0.49398  -0.49016
 Alpha virt. eigenvalues --    0.13932   0.15492   0.20403   0.21204   0.54127
 Alpha virt. eigenvalues --    0.55313   0.57671   0.58042   0.64865   0.73491
 Alpha virt. eigenvalues --    0.79385   0.79941   0.80594   0.81333   0.82722

 Mulliken charges:
               1
     1  O   -0.500401
     2  H    0.247749
     3  H    0.252908
     4  O   -0.500099
     5  H    0.246362
     6  H    0.253481
 Sum of Mulliken charges =  -0.00000

 Dipole moment (field-independent basis, Debye):
    X=             -1.2780    Y=             -0.5075    Z=              0.0000  Tot=              1.3751
 Quadrupole moment (field-independent basis, Debye-Ang):
   XX=             -8.7090   YY=              3.6095   ZZ=            -14.7109
   XY=             -1.9173   XZ=              0.0000   YZ=              0.0000

 Normal termination of Gaussian 16 at Sat Aug 27 10:49:25 2022.
