 Gaussian 16, Revision A.03,
 Gaussian 16:  ES64L-G16RevA.03 25-Dec-2016

 ------------------
 #p CCSD(T)/cc-pVTZ
 ------------------

 -----------
 H2O_H2O_794
 -----------
 Symbolic Z-matrix:
 Charge =  0 Multiplicity = 1

                         Standard orientation:
 ---------------------------------------------------------------------
 Center     Atomic      Atomic             Coordinates (Angstroms)
 Number     Number       Type             X           Y           Z
 ---------------------------------------------------------------------
      1          8           0        0.054231   -1.173898    0.000000
      2          1           0       -0.747527   -1.741956    0.000000
      3          1           0        0.851603   -1.748096    0.000000
      4          8           0        0.054231    1.250992    0.000000
      5          1           0       -0.225964    2.192797    0.000000
      6          1           0       -0.745802    0.680506    0.000000
 ---------------------------------------------------------------------

 SCF Done:  E(RHF) =  -152.096856951     A.U. after   11 cycles
 E2 =    -0.5302616273D+00 EUMP2 =    -0.15262711857873D+03
 CCSD(T)
 CCSD(T)= -0.15265415647D+03

 The electronic state is 1-A'.
 Alpha  occ. eigenvalues --  -20.55601 -20.52334  -1.33479  -1.29645  -0.70861
 Alpha  occ. eigenvalues --   -0.68142  -0.55890  -0.52650  -0.50530  -0.46663
 Alpha virt. eigenvalues --    0.13445   0.17936   0.19734   0.24810   0.51899
 Alpha virt. eigenvalues --    0.56821   0.59921   0.60611   0.71416   0.74262
 Alpha virt. eigenvalues --    0.77401   0.82881   0.83683   0.84333   0.86262

 Mulliken charges:
               1
     1  O   -0.461091
     2  H    0.228534
     3  H    0.247594
     4  O   -0.482652
     5  H    0.212409
     6  H    0.255207
 Sum of Mulliken charges =  -0.00000

 Dipole moment (field-independent basis, Debye):
    X=             -1.6810    Y=             -1.5809    Z=              0.0000  Tot=              2.3076
 Quadrupole moment (field-independent basis, Debye-Ang):
   XX=             -9.6910   YY=             -4.5049   ZZ=            -14.7205
   XY=             -1.9730   XZ=              0.0000   YZ=              0.0000

 Normal termination of Gaussian 16 at Fri Aug 26 20:05:26 2022.
