 Gaussian 16, Revision A.03,
 Gaussian 16:  ES64L-G16RevA.03 25-Dec-2016

 ------------------
 #p CCSD(T)/cc-pVTZ
 ------------------

 ------------
 H2O_H2O_1393
 ------------
 Symbolic Z-matrix:
 Charge =  0 Multiplicity = 1

                         Standard orientation:
 ---------------------------------------------------------------------
 Center     Atomic      Atomic             Coordinates (Angstroms)
 Number     Number       Type             X           Y           Z
 ---------------------------------------------------------------------
      1          8           0        0.052870   -1.496745    0.000000
      2          1           0       -0.748391   -2.065504    0.000000
      3          1           0        0.850744   -2.070246    0.000000
      4          8           0        0.052870    1.566946    0.000000
      5          1           0       -0.165964    2.524869    0.000000
      6          1           0       -0.782309    1.049275    0.000000
 ---------------------------------------------------------------------

 SCF Done:  E(RHF) =  -152.106535919     A.U. after   10 cycles
 E2 =    -0.5272487165D+00 EUMP2 =    -0.15263378463553D+03
 CCSD(T)
 CCSD(T)= -0.15266094310D+03

 The electronic state is 1-A'.
 Alpha  occ. eigenvalues --  -20.55580 -20.53599  -1.32887  -1.30865  -0.70305
 Alpha  occ. eigenvalues --   -0.68293  -0.56278  -0.54185  -0.50003  -0.47977
 Alpha virt. eigenvalues --    0.13483   0.16934   0.19920   0.23576   0.53922
 Alpha virt. eigenvalues --    0.55699   0.57204   0.58321   0.67311   0.75682
 Alpha virt. eigenvalues --    0.76676   0.76867   0.79806   0.82012   0.84789

 Mulliken charges:
               1
     1  O   -0.486481
     2  H    0.239467
     3  H    0.254061
     4  O   -0.496198
     5  H    0.233197
     6  H    0.255955
 Sum of Mulliken charges =  -0.00000

 Dipole moment (field-independent basis, Debye):
    X=             -1.7288    Y=             -1.3535    Z=              0.0000  Tot=              2.1956
 Quadrupole moment (field-independent basis, Debye-Ang):
   XX=             -9.5817   YY=             -2.1017   ZZ=            -14.7204
   XY=             -2.3564   XZ=              0.0000   YZ=              0.0000

 Normal termination of Gaussian 16 at Sat Aug 27 04:28:31 2022.
