 Gaussian 16, Revision A.03,
 Gaussian 16:  ES64L-G16RevA.03 25-Dec-2016

 ------------------
 #p CCSD(T)/cc-pVTZ
 ------------------

 ------------
 H2O_H2O_4096
 ------------
 Symbolic Z-matrix:
 Charge =  0 Multiplicity = 1

                         Standard orientation:
 ---------------------------------------------------------------------
 Center     Atomic      Atomic             Coordinates (Angstroms)
 Number     Number       Type             X           Y           Z
 ---------------------------------------------------------------------
      1          8           0        0.056090   -2.920999    0.000000
      2          1           0       -0.744408   -3.490831    0.000000
      3          1           0        0.854732   -3.493430    0.000000
      4          8           0        0.056090    3.012759    0.000000
      5          1           0       -0.346622    3.909045    0.000000
      6          1           0       -0.661149    2.341138    0.000000
 ---------------------------------------------------------------------

 SCF Done:  E(RHF) =  -152.107561307     A.U. after   10 cycles
 E2 =    -0.5258744217D+00 EUMP2 =    -0.15263343572827D+03
 CCSD(T)
 CCSD(T)= -0.15266065192D+03

 The electronic state is 1-A'.
 Alpha  occ. eigenvalues --  -20.55681 -20.55074  -1.32981  -1.32372  -0.70387
 Alpha  occ. eigenvalues --   -0.69770  -0.56435  -0.55822  -0.50093  -0.49487
 Alpha virt. eigenvalues --    0.13954   0.14649   0.20084   0.20753   0.54169
 Alpha virt. eigenvalues --    0.54800   0.57104   0.57706   0.67634   0.68477
 Alpha virt. eigenvalues --    0.78788   0.79383   0.80213   0.80790   0.82257

 Mulliken charges:
               1
     1  O   -0.509811
     2  H    0.253469
     3  H    0.256351
     4  O   -0.509397
     5  H    0.251799
     6  H    0.257589
 Sum of Mulliken charges =  -0.00000

 Dipole moment (field-independent basis, Debye):
    X=             -1.9261    Y=             -1.6080    Z=              0.0000  Tot=              2.5091
 Quadrupole moment (field-independent basis, Debye-Ang):
   XX=             -9.7838   YY=              4.0206   ZZ=            -14.7125
   XY=             -5.5846   XZ=              0.0000   YZ=              0.0000

 Normal termination of Gaussian 16 at Sat Aug 27 05:21:37 2022.
