 Gaussian 16, Revision A.03,
 Gaussian 16:  ES64L-G16RevA.03 25-Dec-2016

 ------------------
 #p CCSD(T)/cc-pVTZ
 ------------------

 -----------
 H2O_H2O_961
 -----------
 Symbolic Z-matrix:
 Charge =  0 Multiplicity = 1

                         Standard orientation:
 ---------------------------------------------------------------------
 Center     Atomic      Atomic             Coordinates (Angstroms)
 Number     Number       Type             X           Y           Z
 ---------------------------------------------------------------------
      1          8           0        0.037692   -1.293548    0.000000
      2          1           0       -0.763292   -1.862696    0.000000
      3          1           0        0.835845   -1.866660    0.000000
      4          8           0        0.037692    1.321707    0.000000
      5          1           0        0.264639    2.277742    0.000000
      6          1           0       -0.940271    1.226336    0.000000
 ---------------------------------------------------------------------

 SCF Done:  E(RHF) =  -152.098472506     A.U. after   11 cycles
 E2 =    -0.5286155895D+00 EUMP2 =    -0.15262708809556D+03
 CCSD(T)
 CCSD(T)= -0.15265433627D+03

 The electronic state is 1-A'.
 Alpha  occ. eigenvalues --  -20.54109 -20.53245  -1.31661  -1.30465  -0.69047
 Alpha  occ. eigenvalues --   -0.68011  -0.56376  -0.51902  -0.48868  -0.47391
 Alpha virt. eigenvalues --    0.14139   0.17212   0.20324   0.22833   0.52950
 Alpha virt. eigenvalues --    0.58150   0.58352   0.60363   0.70017   0.76266
 Alpha virt. eigenvalues --    0.76926   0.77893   0.83390   0.83466   0.85797

 Mulliken charges:
               1
     1  O   -0.471580
     2  H    0.228734
     3  H    0.243680
     4  O   -0.460364
     5  H    0.218110
     6  H    0.241420
 Sum of Mulliken charges =  -0.00000

 Dipole moment (field-independent basis, Debye):
    X=             -1.1926    Y=             -0.5455    Z=              0.0000  Tot=              1.3114
 Quadrupole moment (field-independent basis, Debye-Ang):
   XX=             -8.8057   YY=             -2.6079   ZZ=            -14.7210
   XY=             -0.9131   XZ=              0.0000   YZ=              0.0000

 Normal termination of Gaussian 16 at Fri Aug 26 21:32:47 2022.
