 Gaussian 16, Revision A.03,
 Gaussian 16:  ES64L-G16RevA.03 25-Dec-2016

 ------------------
 #p CCSD(T)/cc-pVTZ
 ------------------

 ------------
 H2O_H2O_1495
 ------------
 Symbolic Z-matrix:
 Charge =  0 Multiplicity = 1

                         Standard orientation:
 ---------------------------------------------------------------------
 Center     Atomic      Atomic             Coordinates (Angstroms)
 Number     Number       Type             X           Y           Z
 ---------------------------------------------------------------------
      1          8           0        0.055294   -1.542255    0.000000
      2          1           0       -0.745986   -2.110988    0.000000
      3          1           0        0.853149   -2.115781    0.000000
      4          8           0        0.055294    1.626586    0.000000
      5          1           0       -0.286674    2.547762    0.000000
      6          1           0       -0.705190    1.004356    0.000000
 ---------------------------------------------------------------------

 SCF Done:  E(RHF) =  -152.107850260     A.U. after   10 cycles
 E2 =    -0.5270466546D+00 EUMP2 =    -0.15263489691442D+03
 CCSD(T)
 CCSD(T)= -0.15266203153D+03

 The electronic state is 1-A'.
 Alpha  occ. eigenvalues --  -20.55936 -20.53617  -1.33228  -1.30900  -0.70640
 Alpha  occ. eigenvalues --   -0.68319  -0.56609  -0.54337  -0.50344  -0.48026
 Alpha virt. eigenvalues --    0.13277   0.16921   0.19804   0.24035   0.53515
 Alpha virt. eigenvalues --    0.55307   0.56947   0.58322   0.67182   0.75737
 Alpha virt. eigenvalues --    0.76660   0.76689   0.79752   0.81677   0.84527

 Mulliken charges:
               1
     1  O   -0.490737
     2  H    0.242502
     3  H    0.256517
     4  O   -0.504779
     5  H    0.236666
     6  H    0.259831
 Sum of Mulliken charges =  -0.00000

 Dipole moment (field-independent basis, Debye):
    X=             -1.8193    Y=             -1.6252    Z=              0.0000  Tot=              2.4395
 Quadrupole moment (field-independent basis, Debye-Ang):
   XX=             -9.7331   YY=             -2.3837   ZZ=            -14.7217
   XY=             -2.8058   XZ=              0.0000   YZ=              0.0000

 Normal termination of Gaussian 16 at Sat Aug 27 05:06:21 2022.
