 Gaussian 16, Revision A.03,
 Gaussian 16:  ES64L-G16RevA.03 25-Dec-2016

 ------------------
 #p CCSD(T)/cc-pVTZ
 ------------------

 -----------
 H2O_H2O_927
 -----------
 Symbolic Z-matrix:
 Charge =  0 Multiplicity = 1

                         Standard orientation:
 ---------------------------------------------------------------------
 Center     Atomic      Atomic             Coordinates (Angstroms)
 Number     Number       Type             X           Y           Z
 ---------------------------------------------------------------------
      1          8           0        0.007455   -1.295021    0.000000
      2          1           0       -0.792399   -1.865757    0.000000
      3          1           0        0.806743   -1.866549    0.000000
      4          8           0        0.007455    1.295991    0.000000
      5          1           0        0.725970    1.966246    0.000000
      6          1           0       -0.859595    1.758301    0.000000
 ---------------------------------------------------------------------

 SCF Done:  E(RHF) =  -152.094905760     A.U. after   11 cycles
 E2 =    -0.5287188000D+00 EUMP2 =    -0.15262362456046D+03
 CCSD(T)
 CCSD(T)= -0.15265093888D+03

 The electronic state is 1-A'.
 Alpha  occ. eigenvalues --  -20.53251 -20.53224  -1.31031  -1.30335  -0.68354
 Alpha  occ. eigenvalues --   -0.67879  -0.56613  -0.50740  -0.48310  -0.47137
 Alpha virt. eigenvalues --    0.14481   0.17348   0.20569   0.22250   0.50587
 Alpha virt. eigenvalues --    0.58715   0.58855   0.62526   0.72833   0.76727
 Alpha virt. eigenvalues --    0.76761   0.78900   0.81813   0.83810   0.86431

 Mulliken charges:
               1
     1  O   -0.462171
     2  H    0.229317
     3  H    0.232700
     4  O   -0.460977
     5  H    0.228758
     6  H    0.232373
 Sum of Mulliken charges =  -0.00000

 Dipole moment (field-independent basis, Debye):
    X=             -0.2361    Y=             -0.0186    Z=              0.0000  Tot=              0.2368
 Quadrupole moment (field-independent basis, Debye-Ang):
   XX=             -7.9963   YY=             -2.3929   ZZ=            -14.7207
   XY=             -0.1172   XZ=              0.0000   YZ=              0.0000

 Normal termination of Gaussian 16 at Fri Aug 26 21:15:38 2022.
