 Gaussian 16, Revision A.03,
 Gaussian 16:  ES64L-G16RevA.03 25-Dec-2016

 ------------------
 #p CCSD(T)/cc-pVTZ
 ------------------

 ------------
 H2O_H2O_2483
 ------------
 Symbolic Z-matrix:
 Charge =  0 Multiplicity = 1

                         Standard orientation:
 ---------------------------------------------------------------------
 Center     Atomic      Atomic             Coordinates (Angstroms)
 Number     Number       Type             X           Y           Z
 ---------------------------------------------------------------------
      1          8           0        0.028565   -2.111618    0.000000
      2          1           0       -0.771668   -2.681822    0.000000
      3          1           0        0.827473   -2.683677    0.000000
      4          8           0        0.028565    2.126856    0.000000
      5          1           0        0.436487    3.020783    0.000000
      6          1           0       -0.949339    2.222819    0.000000
 ---------------------------------------------------------------------

 SCF Done:  E(RHF) =  -152.105801958     A.U. after   10 cycles
 E2 =    -0.5261657835D+00 EUMP2 =    -0.15263196774188D+03
 CCSD(T)
 CCSD(T)= -0.15265920876D+03

 The electronic state is 1-A'.
 Alpha  occ. eigenvalues --  -20.54848 -20.54646  -1.32136  -1.31930  -0.69550
 Alpha  occ. eigenvalues --   -0.69336  -0.55532  -0.55256  -0.49237  -0.49032
 Alpha virt. eigenvalues --    0.14097   0.15440   0.20513   0.21090   0.54333
 Alpha virt. eigenvalues --    0.55521   0.57772   0.58034   0.64439   0.73402
 Alpha virt. eigenvalues --    0.79506   0.79964   0.80879   0.81164   0.82369

 Mulliken charges:
               1
     1  O   -0.498738
     2  H    0.247473
     3  H    0.251382
     4  O   -0.498389
     5  H    0.246608
     6  H    0.251664
 Sum of Mulliken charges =  -0.00000

 Dipole moment (field-independent basis, Debye):
    X=             -0.9689    Y=             -0.2736    Z=              0.0000  Tot=              1.0068
 Quadrupole moment (field-independent basis, Debye-Ang):
   XX=             -8.3348   YY=              4.2068   ZZ=            -14.7102
   XY=             -1.3377   XZ=              0.0000   YZ=              0.0000

 Normal termination of Gaussian 16 at Sat Aug 27 10:48:26 2022.
