 Gaussian 16, Revision A.03,
 Gaussian 16:  ES64L-G16RevA.03 25-Dec-2016

 ------------------
 #p CCSD(T)/cc-pVTZ
 ------------------

 ------------
 H2O_H2O_3256
 ------------
 Symbolic Z-matrix:
 Charge =  0 Multiplicity = 1

                         Standard orientation:
 ---------------------------------------------------------------------
 Center     Atomic      Atomic             Coordinates (Angstroms)
 Number     Number       Type             X           Y           Z
 ---------------------------------------------------------------------
      1          8           0        0.021859   -2.527362    0.000000
      2          1           0       -0.778136   -3.097900    0.000000
      3          1           0        0.821006   -3.099089    0.000000
      4          8           0        0.021859    2.536025    0.000000
      5          1           0        0.542624    3.369278    0.000000
      6          1           0       -0.935246    2.758410    0.000000
 ---------------------------------------------------------------------

 SCF Done:  E(RHF) =  -152.106327578     A.U. after   10 cycles
 E2 =    -0.5260057119D+00 EUMP2 =    -0.15263233328959D+03
 CCSD(T)
 CCSD(T)= -0.15265957441D+03

 The electronic state is 1-A'.
 Alpha  occ. eigenvalues --  -20.55010 -20.54932  -1.32304  -1.32224  -0.69713
 Alpha  occ. eigenvalues --   -0.69631  -0.55700  -0.55619  -0.49407  -0.49329
 Alpha virt. eigenvalues --    0.14400   0.14824   0.20547   0.20727   0.54789
 Alpha virt. eigenvalues --    0.55006   0.57671   0.57776   0.67626   0.69619
 Alpha virt. eigenvalues --    0.79466   0.79549   0.80897   0.81037   0.82736

 Mulliken charges:
               1
     1  O   -0.502521
     2  H    0.250338
     3  H    0.252186
     4  O   -0.502376
     5  H    0.249945
     6  H    0.252427
 Sum of Mulliken charges =  -0.00000

 Dipole moment (field-independent basis, Debye):
    X=             -0.7473    Y=             -0.1527    Z=              0.0000  Tot=              0.7627
 Quadrupole moment (field-independent basis, Debye-Ang):
   XX=             -8.1122   YY=              7.7145   ZZ=            -14.7101
   XY=             -1.2817   XZ=              0.0000   YZ=              0.0000

 Normal termination of Gaussian 16 at Fri Aug 26 20:47:06 2022.
