 Gaussian 16, Revision A.03,
 Gaussian 16:  ES64L-G16RevA.03 25-Dec-2016

 ------------------
 #p CCSD(T)/cc-pVTZ
 ------------------

 ------------
 H2O_H2O_1957
 ------------
 Symbolic Z-matrix:
 Charge =  0 Multiplicity = 1

                         Standard orientation:
 ---------------------------------------------------------------------
 Center     Atomic      Atomic             Coordinates (Angstroms)
 Number     Number       Type             X           Y           Z
 ---------------------------------------------------------------------
      1          8           0        0.025267   -1.834314    0.000000
      2          1           0       -0.774978   -2.404501    0.000000
      3          1           0        0.824163   -2.406391    0.000000
      4          8           0        0.025267    1.846034    0.000000
      5          1           0        0.490798    2.711359    0.000000
      6          1           0       -0.944263    2.005771    0.000000
 ---------------------------------------------------------------------

 SCF Done:  E(RHF) =  -152.104912637     A.U. after   10 cycles
 E2 =    -0.5264894259D+00 EUMP2 =    -0.15263140206320D+03
 CCSD(T)
 CCSD(T)= -0.15265864219D+03

 The electronic state is 1-A'.
 Alpha  occ. eigenvalues --  -20.54581 -20.54370  -1.31861  -1.31643  -0.69282
 Alpha  occ. eigenvalues --   -0.69054  -0.55396  -0.54704  -0.48968  -0.48732
 Alpha virt. eigenvalues --    0.14064   0.15961   0.20520   0.21417   0.53432
 Alpha virt. eigenvalues --    0.56255   0.57947   0.58315   0.62216   0.75856
 Alpha virt. eigenvalues --    0.79175   0.79666   0.80788   0.80829   0.83147

 Mulliken charges:
               1
     1  O   -0.490500
     2  H    0.242957
     3  H    0.247882
     4  O   -0.490534
     5  H    0.242046
     6  H    0.248149
 Sum of Mulliken charges =  -0.00000

 Dipole moment (field-independent basis, Debye):
    X=             -0.8479    Y=             -0.2157    Z=              0.0000  Tot=              0.8749
 Quadrupole moment (field-independent basis, Debye-Ang):
   XX=             -8.2418   YY=              2.1677   ZZ=            -14.7098
   XY=             -0.9202   XZ=              0.0000   YZ=              0.0000

 Normal termination of Gaussian 16 at Sat Aug 27 07:46:20 2022.
