 Gaussian 16, Revision A.03,
 Gaussian 16:  ES64L-G16RevA.03 25-Dec-2016

 ------------------
 #p CCSD(T)/cc-pVTZ
 ------------------

 ------------
 H2O_H2O_2146
 ------------
 Symbolic Z-matrix:
 Charge =  0 Multiplicity = 1

                         Standard orientation:
 ---------------------------------------------------------------------
 Center     Atomic      Atomic             Coordinates (Angstroms)
 Number     Number       Type             X           Y           Z
 ---------------------------------------------------------------------
      1          8           0        0.056130   -1.883969    0.000000
      2          1           0       -0.744865   -2.453101    0.000000
      3          1           0        0.854272   -2.457097    0.000000
      4          8           0        0.056130    1.975631    0.000000
      5          1           0       -0.345799    2.872268    0.000000
      6          1           0       -0.661695    1.304636    0.000000
 ---------------------------------------------------------------------

 SCF Done:  E(RHF) =  -152.108258117     A.U. after   10 cycles
 E2 =    -0.5262537402D+00 EUMP2 =    -0.15263451185716D+03
 CCSD(T)
 CCSD(T)= -0.15266167458D+03

 The electronic state is 1-A'.
 Alpha  occ. eigenvalues --  -20.55909 -20.54248  -1.33182  -1.31542  -0.70590
 Alpha  occ. eigenvalues --   -0.68909  -0.56635  -0.54998  -0.50300  -0.48668
 Alpha virt. eigenvalues --    0.13103   0.16152   0.19882   0.22883   0.53969
 Alpha virt. eigenvalues --    0.54718   0.56961   0.58558   0.65834   0.74354
 Alpha virt. eigenvalues --    0.78373   0.79125   0.80330   0.80436   0.83836

 Mulliken charges:
               1
     1  O   -0.503056
     2  H    0.248873
     3  H    0.257692
     4  O   -0.510601
     5  H    0.245123
     6  H    0.261968
 Sum of Mulliken charges =  -0.00000

 Dipole moment (field-independent basis, Debye):
    X=             -1.8914    Y=             -1.6924    Z=              0.0000  Tot=              2.5380
 Quadrupole moment (field-independent basis, Debye-Ang):
   XX=             -9.7829   YY=             -0.9626   ZZ=            -14.7169
   XY=             -3.6190   XZ=              0.0000   YZ=              0.0000

 Normal termination of Gaussian 16 at Sat Aug 27 08:50:42 2022.
