 Gaussian 16, Revision A.03,
 Gaussian 16:  ES64L-G16RevA.03 25-Dec-2016

 ------------------
 #p CCSD(T)/cc-pVTZ
 ------------------

 ------------
 H2O_H2O_3898
 ------------
 Symbolic Z-matrix:
 Charge =  0 Multiplicity = 1

                         Standard orientation:
 ---------------------------------------------------------------------
 Center     Atomic      Atomic             Coordinates (Angstroms)
 Number     Number       Type             X           Y           Z
 ---------------------------------------------------------------------
      1          8           0        0.057082   -2.806594    0.000000
      2          1           0       -0.743467   -3.376354    0.000000
      3          1           0        0.855673   -3.379097    0.000000
      4          8           0        0.057082    2.913154    0.000000
      5          1           0       -0.459099    3.749254    0.000000
      6          1           0       -0.566425    2.153717    0.000000
 ---------------------------------------------------------------------

 SCF Done:  E(RHF) =  -152.107741447     A.U. after   10 cycles
 E2 =    -0.5258661872D+00 EUMP2 =    -0.15263360763445D+03
 CCSD(T)
 CCSD(T)= -0.15266081925D+03

 The electronic state is 1-A'.
 Alpha  occ. eigenvalues --  -20.55779 -20.55017  -1.33079  -1.32317  -0.70484
 Alpha  occ. eigenvalues --   -0.69712  -0.56542  -0.55771  -0.50193  -0.49433
 Alpha virt. eigenvalues --    0.13811   0.14755   0.20008   0.20863   0.54066
 Alpha virt. eigenvalues --    0.54840   0.57020   0.57757   0.67396   0.68645
 Alpha virt. eigenvalues --    0.78690   0.79433   0.80104   0.80666   0.82424

 Mulliken charges:
               1
     1  O   -0.510843
     2  H    0.253856
     3  H    0.257022
     4  O   -0.510296
     5  H    0.251706
     6  H    0.258556
 Sum of Mulliken charges =  -0.00000

 Dipole moment (field-independent basis, Debye):
    X=             -1.9590    Y=             -1.8715    Z=              0.0000  Tot=              2.7092
 Quadrupole moment (field-independent basis, Debye-Ang):
   XX=             -9.8543   YY=              2.0753   ZZ=            -14.7130
   XY=             -5.7403   XZ=              0.0000   YZ=              0.0000

 Normal termination of Gaussian 16 at Sat Aug 27 04:09:08 2022.
