 Gaussian 16, Revision A.03,
 Gaussian 16:  ES64L-G16RevA.03 25-Dec-2016

 ------------------
 #p CCSD(T)/cc-pVTZ
 ------------------

 -----------
 H2O_H2O_529
 -----------
 Symbolic Z-matrix:
 Charge =  0 Multiplicity = 1

                         Standard orientation:
 ---------------------------------------------------------------------
 Center     Atomic      Atomic             Coordinates (Angstroms)
 Number     Number       Type             X           Y           Z
 ---------------------------------------------------------------------
      1          8           0        0.014784   -1.080718    0.000000
      2          1           0       -0.785457   -1.650909    0.000000
      3          1           0        0.813683   -1.652789    0.000000
      4          8           0        0.014784    1.084575    0.000000
      5          1           0        0.640182    1.842455    0.000000
      6          1           0       -0.904957    1.430383    0.000000
 ---------------------------------------------------------------------

 SCF Done:  E(RHF) =  -152.072234712     A.U. after   11 cycles
 E2 =    -0.5323608063D+00 EUMP2 =    -0.15260459551869D+03
 CCSD(T)
 CCSD(T)= -0.15263168606D+03

 The electronic state is 1-A'.
 Alpha  occ. eigenvalues --  -20.52387 -20.52267  -1.31409  -1.29167  -0.68374
 Alpha  occ. eigenvalues --   -0.66977  -0.59183  -0.48707  -0.46463  -0.45725
 Alpha virt. eigenvalues --    0.14583   0.18046   0.20519   0.22736   0.50649
 Alpha virt. eigenvalues --    0.58968   0.59052   0.65014   0.70841   0.77183
 Alpha virt. eigenvalues --    0.78105   0.81896   0.84289   0.86629   0.87125

 Mulliken charges:
               1
     1  O   -0.446142
     2  H    0.218426
     3  H    0.226633
     4  O   -0.437789
     5  H    0.209009
     6  H    0.229864
 Sum of Mulliken charges =  -0.00000

 Dipole moment (field-independent basis, Debye):
    X=             -0.4429    Y=             -0.0783    Z=              0.0000  Tot=              0.4497
 Quadrupole moment (field-independent basis, Debye-Ang):
   XX=             -8.2074   YY=             -4.7063   ZZ=            -14.7422
   XY=             -0.1633   XZ=              0.0000   YZ=              0.0000

 62056\MP4DQ=-152.6124873\MP4SDQ=-152.6158867\CCSD=-152.61517\CCSD(T)=-
 Normal termination of Gaussian 16 at Fri Aug 26 17:22:25 2022.
