 Gaussian 16, Revision A.03,
 Gaussian 16:  ES64L-G16RevA.03 25-Dec-2016

 ------------------
 #p CCSD(T)/cc-pVTZ
 ------------------

 ------------
 H2O_H2O_4553
 ------------
 Symbolic Z-matrix:
 Charge =  0 Multiplicity = 1

                         Standard orientation:
 ---------------------------------------------------------------------
 Center     Atomic      Atomic             Coordinates (Angstroms)
 Number     Number       Type             X           Y           Z
 ---------------------------------------------------------------------
      1          8           0        0.011143   -3.222266    0.000000
      2          1           0       -0.788598   -3.793160    0.000000
      3          1           0        0.810544   -3.793636    0.000000
      4          8           0        0.011143    3.224454    0.000000
      5          1           0        0.684141    3.940401    0.000000
      6          1           0       -0.884367    3.628891    0.000000
 ---------------------------------------------------------------------

 SCF Done:  E(RHF) =  -152.106868642     A.U. after   10 cycles
 E2 =    -0.5259244778D+00 EUMP2 =    -0.15263279311961D+03
 CCSD(T)
 CCSD(T)= -0.15266002484D+03

 The electronic state is 1-A'.
 Alpha  occ. eigenvalues --  -20.55217 -20.55205  -1.32513  -1.32501  -0.69920
 Alpha  occ. eigenvalues --   -0.69907  -0.55935  -0.55923  -0.49620  -0.49608
 Alpha virt. eigenvalues --    0.14410   0.14433   0.20461   0.20477   0.54649
 Alpha virt. eigenvalues --    0.54663   0.57519   0.57532   0.68283   0.68322
 Alpha virt. eigenvalues --    0.79259   0.79271   0.80701   0.80715   0.82629

 Mulliken charges:
               1
     1  O   -0.505682
     2  H    0.252602
     3  H    0.253080
     4  O   -0.505670
     5  H    0.252498
     6  H    0.253172
 Sum of Mulliken charges =  -0.00000

 Dipole moment (field-independent basis, Debye):
    X=             -0.3829    Y=             -0.0382    Z=              0.0000  Tot=              0.3848
 Quadrupole moment (field-independent basis, Debye-Ang):
   XX=             -7.8805   YY=             13.5808   ZZ=            -14.7107
   XY=             -0.8922   XZ=              0.0000   YZ=              0.0000

 Normal termination of Gaussian 16 at Sat Aug 27 07:58:37 2022.
