 Gaussian 16, Revision A.03,
 Gaussian 16:  ES64L-G16RevA.03 25-Dec-2016

 ------------------
 #p CCSD(T)/cc-pVTZ
 ------------------

 ------------
 H2O_H2O_4653
 ------------
 Symbolic Z-matrix:
 Charge =  0 Multiplicity = 1

                         Standard orientation:
 ---------------------------------------------------------------------
 Center     Atomic      Atomic             Coordinates (Angstroms)
 Number     Number       Type             X           Y           Z
 ---------------------------------------------------------------------
      1          8           0        0.011143   -3.275450    0.000000
      2          1           0       -0.788596   -3.846348    0.000000
      3          1           0        0.810546   -3.846816    0.000000
      4          8           0        0.011143    3.277638    0.000000
      5          1           0        0.684137    3.993587    0.000000
      6          1           0       -0.884369    3.682069    0.000000
 ---------------------------------------------------------------------

 SCF Done:  E(RHF) =  -152.106898259     A.U. after   10 cycles
 E2 =    -0.5259207961D+00 EUMP2 =    -0.15263281905530D+03
 CCSD(T)
 CCSD(T)= -0.15266005021D+03

 The electronic state is 1-A'.
 Alpha  occ. eigenvalues --  -20.55231 -20.55219  -1.32527  -1.32515  -0.69934
 Alpha  occ. eigenvalues --   -0.69922  -0.55951  -0.55939  -0.49635  -0.49623
 Alpha virt. eigenvalues --    0.14401   0.14419   0.20452   0.20466   0.54634
 Alpha virt. eigenvalues --    0.54648   0.57507   0.57519   0.68270   0.68299
 Alpha virt. eigenvalues --    0.79244   0.79256   0.80687   0.80700   0.82613

 Mulliken charges:
               1
     1  O   -0.505856
     2  H    0.252700
     3  H    0.253156
     4  O   -0.505844
     5  H    0.252599
     6  H    0.253245
 Sum of Mulliken charges =  -0.00000

 Dipole moment (field-independent basis, Debye):
    X=             -0.3830    Y=             -0.0381    Z=              0.0000  Tot=              0.3849
 Quadrupole moment (field-independent basis, Debye-Ang):
   XX=             -7.8800   YY=             14.0019   ZZ=            -14.7108
   XY=             -0.9125   XZ=              0.0000   YZ=              0.0000

 Normal termination of Gaussian 16 at Sat Aug 27 08:33:48 2022.
