 Gaussian 16, Revision A.03,
 Gaussian 16:  ES64L-G16RevA.03 25-Dec-2016

 ------------------
 #p CCSD(T)/cc-pVTZ
 ------------------

 -----------
 H2O_H2O_541
 -----------
 Symbolic Z-matrix:
 Charge =  0 Multiplicity = 1

                         Standard orientation:
 ---------------------------------------------------------------------
 Center     Atomic      Atomic             Coordinates (Angstroms)
 Number     Number       Type             X           Y           Z
 ---------------------------------------------------------------------
      1          8           0        0.049574   -1.052002    0.000000
      2          1           0       -0.752242   -1.619978    0.000000
      3          1           0        0.846887   -1.626280    0.000000
      4          8           0        0.049574    1.108724    0.000000
      5          1           0       -0.041400    2.087106    0.000000
      6          1           0       -0.846423    0.705370    0.000000
 ---------------------------------------------------------------------

 SCF Done:  E(RHF) =  -152.078359838     A.U. after   11 cycles
 E2 =    -0.5328066762D+00 EUMP2 =    -0.15261116651426D+03
 CCSD(T)
 CCSD(T)= -0.15263813521D+03

 The electronic state is 1-A'.
 Alpha  occ. eigenvalues --  -20.54391 -20.52042  -1.33160  -1.29141  -0.70482
 Alpha  occ. eigenvalues --   -0.68212  -0.56467  -0.50169  -0.49772  -0.45996
 Alpha virt. eigenvalues --    0.13825   0.18095   0.19918   0.24167   0.52505
 Alpha virt. eigenvalues --    0.57219   0.59318   0.62342   0.71682   0.75208
 Alpha virt. eigenvalues --    0.79369   0.83015   0.83161   0.84690   0.87895

 Mulliken charges:
               1
     1  O   -0.442909
     2  H    0.214782
     3  H    0.235785
     4  O   -0.442830
     5  H    0.189667
     6  H    0.245506
 Sum of Mulliken charges =   0.00000

 Dipole moment (field-independent basis, Debye):
    X=             -1.4759    Y=             -1.1575    Z=              0.0000  Tot=              1.8756
 Quadrupole moment (field-independent basis, Debye-Ang):
   XX=             -9.4548   YY=             -5.1776   ZZ=            -14.7151
   XY=             -1.2762   XZ=              0.0000   YZ=              0.0000

 Normal termination of Gaussian 16 at Fri Aug 26 17:28:35 2022.
