 Gaussian 16, Revision A.03,
 Gaussian 16:  ES64L-G16RevA.03 25-Dec-2016

 ------------------
 #p CCSD(T)/cc-pVTZ
 ------------------

 ------------
 H2O_H2O_1417
 ------------
 Symbolic Z-matrix:
 Charge =  0 Multiplicity = 1

                         Standard orientation:
 ---------------------------------------------------------------------
 Center     Atomic      Atomic             Coordinates (Angstroms)
 Number     Number       Type             X           Y           Z
 ---------------------------------------------------------------------
      1          8           0        0.051314   -1.513728    0.000000
      2          1           0       -0.749883   -2.082576    0.000000
      3          1           0        0.849252   -2.087139    0.000000
      4          8           0        0.051314    1.577141    0.000000
      5          1           0       -0.104510    2.547308    0.000000
      6          1           0       -0.815882    1.115104    0.000000
 ---------------------------------------------------------------------

 SCF Done:  E(RHF) =  -152.106145165     A.U. after   10 cycles
 E2 =    -0.5271863125D+00 EUMP2 =    -0.15263333147707D+03
 CCSD(T)
 CCSD(T)= -0.15266050385D+03

 The electronic state is 1-A'.
 Alpha  occ. eigenvalues --  -20.55409 -20.53682  -1.32711  -1.30941  -0.70132
 Alpha  occ. eigenvalues --   -0.68355  -0.56142  -0.54198  -0.49828  -0.48050
 Alpha virt. eigenvalues --    0.13568   0.16847   0.19990   0.23281   0.54133
 Alpha virt. eigenvalues --    0.55655   0.57328   0.58306   0.66770   0.75886
 Alpha virt. eigenvalues --    0.76904   0.76975   0.79578   0.82001   0.84923

 Mulliken charges:
               1
     1  O   -0.486025
     2  H    0.238936
     3  H    0.252898
     4  O   -0.493418
     5  H    0.233076
     6  H    0.254533
 Sum of Mulliken charges =  -0.00000

 Dipole moment (field-independent basis, Debye):
    X=             -1.6801    Y=             -1.2163    Z=              0.0000  Tot=              2.0742
 Quadrupole moment (field-independent basis, Debye-Ang):
   XX=             -9.4845   YY=             -1.7567   ZZ=            -14.7189
   XY=             -2.1998   XZ=              0.0000   YZ=              0.0000

 Normal termination of Gaussian 16 at Sat Aug 27 04:38:12 2022.
