 Gaussian 16, Revision A.03,
 Gaussian 16:  ES64L-G16RevA.03 25-Dec-2016

 ------------------
 #p CCSD(T)/cc-pVTZ
 ------------------

 ------------
 H2O_H2O_3084
 ------------
 Symbolic Z-matrix:
 Charge =  0 Multiplicity = 1

                         Standard orientation:
 ---------------------------------------------------------------------
 Center     Atomic      Atomic             Coordinates (Angstroms)
 Number     Number       Type             X           Y           Z
 ---------------------------------------------------------------------
      1          8           0        0.031741   -2.428579    0.000000
      2          1           0       -0.768469   -2.998815    0.000000
      3          1           0        0.830672   -3.000606    0.000000
      4          8           0        0.031741    2.447758    0.000000
      5          1           0        0.380286    3.366465    0.000000
      6          1           0       -0.950347    2.479520    0.000000
 ---------------------------------------------------------------------

 SCF Done:  E(RHF) =  -152.106375842     A.U. after   10 cycles
 E2 =    -0.5260160710D+00 EUMP2 =    -0.15263239191259D+03
 CCSD(T)
 CCSD(T)= -0.15265963079D+03

 The electronic state is 1-A'.
 Alpha  occ. eigenvalues --  -20.55058 -20.54870  -1.32352  -1.32161  -0.69762
 Alpha  occ. eigenvalues --   -0.69565  -0.55750  -0.55558  -0.49456  -0.49267
 Alpha virt. eigenvalues --    0.14272   0.14956   0.20484   0.20826   0.54689
 Alpha virt. eigenvalues --    0.55080   0.57627   0.57834   0.67157   0.70174
 Alpha virt. eigenvalues --    0.79416   0.79611   0.80825   0.81134   0.82699

 Mulliken charges:
               1
     1  O   -0.502795
     2  H    0.249914
     3  H    0.252901
     4  O   -0.502475
     5  H    0.249157
     6  H    0.253299
 Sum of Mulliken charges =   0.00000

 Dipole moment (field-independent basis, Debye):
    X=             -1.0838    Y=             -0.3391    Z=              0.0000  Tot=              1.1356
 Quadrupole moment (field-independent basis, Debye-Ang):
   XX=             -8.4448   YY=              6.4097   ZZ=            -14.7104
   XY=             -1.8660   XZ=              0.0000   YZ=              0.0000

 Normal termination of Gaussian 16 at Fri Aug 26 19:16:27 2022.
