 Gaussian 16, Revision A.03,
 Gaussian 16:  ES64L-G16RevA.03 25-Dec-2016

 ------------------
 #p CCSD(T)/cc-pVTZ
 ------------------

 ------------
 H2O_H2O_4851
 ------------
 Symbolic Z-matrix:
 Charge =  0 Multiplicity = 1

                         Standard orientation:
 ---------------------------------------------------------------------
 Center     Atomic      Atomic             Coordinates (Angstroms)
 Number     Number       Type             X           Y           Z
 ---------------------------------------------------------------------
      1          8           0        0.003735   -3.382873    0.000000
      2          1           0       -0.795890   -3.953929    0.000000
      3          1           0        0.803252   -3.954081    0.000000
      4          8           0        0.003735    3.383117    0.000000
      5          1           0        0.764300    4.005248    0.000000
      6          1           0       -0.831428    3.900811    0.000000
 ---------------------------------------------------------------------

 SCF Done:  E(RHF) =  -152.106939871     A.U. after   10 cycles
 E2 =    -0.5259153020D+00 EUMP2 =    -0.15263285517351D+03
 CCSD(T)
 CCSD(T)= -0.15266008556D+03

 The electronic state is 1-A'.
 Alpha  occ. eigenvalues --  -20.55248 -20.55247  -1.32544  -1.32543  -0.69951
 Alpha  occ. eigenvalues --   -0.69950  -0.55970  -0.55969  -0.49652  -0.49651
 Alpha virt. eigenvalues --    0.14387   0.14395   0.20440   0.20444   0.54617
 Alpha virt. eigenvalues --    0.54619   0.57493   0.57495   0.68250   0.68263
 Alpha virt. eigenvalues --    0.79227   0.79228   0.80668   0.80670   0.82594

 Mulliken charges:
               1
     1  O   -0.506100
     2  H    0.252980
     3  H    0.253120
     4  O   -0.506099
     5  H    0.252951
     6  H    0.253149
 Sum of Mulliken charges =  -0.00000

 Dipole moment (field-independent basis, Debye):
    X=             -0.1285    Y=             -0.0042    Z=              0.0000  Tot=              0.1285
 Quadrupole moment (field-independent basis, Debye-Ang):
   XX=             -7.8097   YY=             15.0075   ZZ=            -14.7108
   XY=             -0.3172   XZ=              0.0000   YZ=              0.0000

 Normal termination of Gaussian 16 at Sat Aug 27 09:41:40 2022.
