 Gaussian 16, Revision A.03,
 Gaussian 16:  ES64L-G16RevA.03 25-Dec-2016

 ------------------
 #p CCSD(T)/cc-pVTZ
 ------------------

 ------------
 H2O_H2O_2741
 ------------
 Symbolic Z-matrix:
 Charge =  0 Multiplicity = 1

                         Standard orientation:
 ---------------------------------------------------------------------
 Center     Atomic      Atomic             Coordinates (Angstroms)
 Number     Number       Type             X           Y           Z
 ---------------------------------------------------------------------
      1          8           0        0.049515   -2.221936    0.000000
      2          1           0       -0.751135   -2.791554    0.000000
      3          1           0        0.848004   -2.794579    0.000000
      4          8           0        0.049515    2.278861    0.000000
      5          1           0       -0.043463    3.257054    0.000000
      6          1           0       -0.845653    1.873672    0.000000
 ---------------------------------------------------------------------

 SCF Done:  E(RHF) =  -152.106983290     A.U. after   10 cycles
 E2 =    -0.5260361971D+00 EUMP2 =    -0.15263301948759D+03
 CCSD(T)
 CCSD(T)= -0.15266023710D+03

 The electronic state is 1-A'.
 Alpha  occ. eigenvalues --  -20.55384 -20.54693  -1.32675  -1.31982  -0.70084
 Alpha  occ. eigenvalues --   -0.69371  -0.56095  -0.55404  -0.49783  -0.49095
 Alpha virt. eigenvalues --    0.13688   0.15376   0.20202   0.21288   0.54166
 Alpha virt. eigenvalues --    0.54961   0.57380   0.57980   0.66241   0.71992
 Alpha virt. eigenvalues --    0.79088   0.79781   0.80202   0.81550   0.82911

 Mulliken charges:
               1
     1  O   -0.505285
     2  H    0.249970
     3  H    0.255716
     4  O   -0.505328
     5  H    0.247822
     6  H    0.257106
 Sum of Mulliken charges =   0.00000

 Dipole moment (field-independent basis, Debye):
    X=             -1.6854    Y=             -1.0186    Z=              0.0000  Tot=              1.9693
 Quadrupole moment (field-independent basis, Debye-Ang):
   XX=             -9.3478   YY=              2.9168   ZZ=            -14.7122
   XY=             -3.1851   XZ=              0.0000   YZ=              0.0000

 Normal termination of Gaussian 16 at Fri Aug 26 15:39:31 2022.
