 Gaussian 16, Revision A.03,
 Gaussian 16:  ES64L-G16RevA.03 25-Dec-2016

 ------------------
 #p CCSD(T)/cc-pVTZ
 ------------------

 ------------
 H2O_H2O_3444
 ------------
 Symbolic Z-matrix:
 Charge =  0 Multiplicity = 1

                         Standard orientation:
 ---------------------------------------------------------------------
 Center     Atomic      Atomic             Coordinates (Angstroms)
 Number     Number       Type             X           Y           Z
 ---------------------------------------------------------------------
      1          8           0        0.054151   -2.583148    0.000000
      2          1           0       -0.746433   -3.152859    0.000000
      3          1           0        0.852707   -3.155699    0.000000
      4          8           0        0.054151    2.660465    0.000000
      5          1           0       -0.227987    3.601690    0.000000
      6          1           0       -0.744702    2.088329    0.000000
 ---------------------------------------------------------------------

 SCF Done:  E(RHF) =  -152.107421211     A.U. after   10 cycles
 E2 =    -0.5259157389D+00 EUMP2 =    -0.15263333695028D+03
 CCSD(T)
 CCSD(T)= -0.15266055342D+03

 The electronic state is 1-A'.
 Alpha  occ. eigenvalues --  -20.55593 -20.54921  -1.32890  -1.32217  -0.70297
 Alpha  occ. eigenvalues --   -0.69610  -0.56337  -0.55660  -0.50001  -0.49332
 Alpha virt. eigenvalues --    0.13852   0.14913   0.20127   0.20951   0.54226
 Alpha virt. eigenvalues --    0.54922   0.57185   0.57808   0.67321   0.69209
 Alpha virt. eigenvalues --    0.78882   0.79535   0.80250   0.80720   0.82686

 Mulliken charges:
               1
     1  O   -0.508851
     2  H    0.252429
     3  H    0.256506
     4  O   -0.508379
     5  H    0.250390
     6  H    0.257905
 Sum of Mulliken charges =  -0.00000

 Dipole moment (field-independent basis, Debye):
    X=             -1.8543    Y=             -1.3646    Z=              0.0000  Tot=              2.3023
 Quadrupole moment (field-independent basis, Debye-Ang):
   XX=             -9.6478   YY=              3.5755   ZZ=            -14.7125
   XY=             -4.5098   XZ=              0.0000   YZ=              0.0000

 Normal termination of Gaussian 16 at Fri Aug 26 22:23:17 2022.
