 Gaussian 16, Revision A.03,
 Gaussian 16:  ES64L-G16RevA.03 25-Dec-2016

 ------------------
 #p CCSD(T)/cc-pVTZ
 ------------------

 -----------
 H2O_H2O_287
 -----------
 Symbolic Z-matrix:
 Charge =  0 Multiplicity = 1

                         Standard orientation:
 ---------------------------------------------------------------------
 Center     Atomic      Atomic             Coordinates (Angstroms)
 Number     Number       Type             X           Y           Z
 ---------------------------------------------------------------------
      1          8           0        0.040446   -0.931840    0.000000
      2          1           0       -0.761213   -1.500038    0.000000
      3          1           0        0.837918   -1.505899    0.000000
      4          8           0        0.040446    0.965000    0.000000
      5          1           0        0.205529    1.933635    0.000000
      6          1           0       -0.929373    0.807023    0.000000
 ---------------------------------------------------------------------

 SCF Done:  E(RHF) =  -152.035579333     A.U. after   11 cycles
 E2 =    -0.5379046832D+00 EUMP2 =    -0.15257348401636D+03
 CCSD(T)
 CCSD(T)= -0.15259999819D+03

 The electronic state is 1-A'.
 Alpha  occ. eigenvalues --  -20.52806 -20.51637  -1.33729  -1.28110  -0.70632
 Alpha  occ. eigenvalues --   -0.67931  -0.59104  -0.50543  -0.44726  -0.43883
 Alpha virt. eigenvalues --    0.14218   0.18416   0.20025   0.23659   0.53387
 Alpha virt. eigenvalues --    0.56990   0.58509   0.64268   0.71930   0.77045
 Alpha virt. eigenvalues --    0.80113   0.82054   0.83241   0.85105   0.88464

 Mulliken charges:
               1
     1  O   -0.418311
     2  H    0.198123
     3  H    0.219421
     4  O   -0.392500
     5  H    0.159603
     6  H    0.233664
 Sum of Mulliken charges =  -0.00000

 Dipole moment (field-independent basis, Debye):
    X=             -1.1438    Y=             -0.7001    Z=              0.0000  Tot=              1.3411
 Quadrupole moment (field-independent basis, Debye-Ang):
   XX=             -9.0656   YY=             -6.5105   ZZ=            -14.7108
   XY=             -0.6298   XZ=              0.0000   YZ=              0.0000

 Normal termination of Gaussian 16 at Fri Aug 26 14:52:46 2022.
