 Gaussian 16, Revision A.03,
 Gaussian 16:  ES64L-G16RevA.03 25-Dec-2016

 ------------------
 #p CCSD(T)/cc-pVTZ
 ------------------

 ------------
 H2O_H2O_4628
 ------------
 Symbolic Z-matrix:
 Charge =  0 Multiplicity = 1

                         Standard orientation:
 ---------------------------------------------------------------------
 Center     Atomic      Atomic             Coordinates (Angstroms)
 Number     Number       Type             X           Y           Z
 ---------------------------------------------------------------------
      1          8           0        0.011143   -3.262154    0.000000
      2          1           0       -0.788596   -3.833051    0.000000
      3          1           0        0.810546   -3.833521    0.000000
      4          8           0        0.011143    3.264342    0.000000
      5          1           0        0.684138    3.980291    0.000000
      6          1           0       -0.884369    3.668775    0.000000
 ---------------------------------------------------------------------

 SCF Done:  E(RHF) =  -152.106890972     A.U. after   10 cycles
 E2 =    -0.5259217282D+00 EUMP2 =    -0.15263281270062D+03
 CCSD(T)
 CCSD(T)= -0.15266004399D+03

 The electronic state is 1-A'.
 Alpha  occ. eigenvalues --  -20.55227 -20.55216  -1.32524  -1.32512  -0.69930
 Alpha  occ. eigenvalues --   -0.69918  -0.55947  -0.55935  -0.49631  -0.49619
 Alpha virt. eigenvalues --    0.14403   0.14423   0.20454   0.20468   0.54638
 Alpha virt. eigenvalues --    0.54651   0.57510   0.57523   0.68273   0.68304
 Alpha virt. eigenvalues --    0.79248   0.79260   0.80690   0.80703   0.82617

 Mulliken charges:
               1
     1  O   -0.505813
     2  H    0.252676
     3  H    0.253137
     4  O   -0.505802
     5  H    0.252574
     6  H    0.253227
 Sum of Mulliken charges =  -0.00000

 Dipole moment (field-independent basis, Debye):
    X=             -0.3830    Y=             -0.0381    Z=              0.0000  Tot=              0.3849
 Quadrupole moment (field-independent basis, Debye-Ang):
   XX=             -7.8801   YY=             13.8966   ZZ=            -14.7108
   XY=             -0.9074   XZ=              0.0000   YZ=              0.0000

 Normal termination of Gaussian 16 at Sat Aug 27 08:25:16 2022.
