 Gaussian 16, Revision A.03,
 Gaussian 16:  ES64L-G16RevA.03 25-Dec-2016

 ------------------
 #p CCSD(T)/cc-pVTZ
 ------------------

 ------------
 H2O_H2O_4966
 ------------
 Symbolic Z-matrix:
 Charge =  0 Multiplicity = 1

                         Standard orientation:
 ---------------------------------------------------------------------
 Center     Atomic      Atomic             Coordinates (Angstroms)
 Number     Number       Type             X           Y           Z
 ---------------------------------------------------------------------
      1          8           0        0.049497   -3.405238    0.000000
      2          1           0       -0.750782   -3.975378    0.000000
      3          1           0        0.848359   -3.977361    0.000000
      4          8           0        0.049497    3.462229    0.000000
      5          1           0       -0.044119    4.440361    0.000000
      6          1           0       -0.845407    3.056454    0.000000
 ---------------------------------------------------------------------

 SCF Done:  E(RHF) =  -152.107310252     A.U. after   10 cycles
 E2 =    -0.5258827563D+00 EUMP2 =    -0.15263319300827D+03
 CCSD(T)
 CCSD(T)= -0.15266041551D+03

 The electronic state is 1-A'.
 Alpha  occ. eigenvalues --  -20.55517 -20.55240  -1.32815  -1.32537  -0.70221
 Alpha  occ. eigenvalues --   -0.69939  -0.56258  -0.55979  -0.49926  -0.49649
 Alpha virt. eigenvalues --    0.14152   0.14429   0.20221   0.20513   0.54342
 Alpha virt. eigenvalues --    0.54633   0.57251   0.57529   0.67939   0.68222
 Alpha virt. eigenvalues --    0.78953   0.79227   0.80387   0.80683   0.82311

 Mulliken charges:
               1
     1  O   -0.508300
     2  H    0.253285
     3  H    0.255015
     4  O   -0.508144
     5  H    0.252559
     6  H    0.255584
 Sum of Mulliken charges =  -0.00000

 Dipole moment (field-independent basis, Debye):
    X=             -1.7029    Y=             -0.9930    Z=              0.0000  Tot=              1.9713
 Quadrupole moment (field-independent basis, Debye-Ang):
   XX=             -9.3455   YY=             10.0452   ZZ=            -14.7117
   XY=             -5.1756   XZ=              0.0000   YZ=              0.0000

 Normal termination of Gaussian 16 at Sat Aug 27 10:22:56 2022.
