 Gaussian 16, Revision A.03,
 Gaussian 16:  ES64L-G16RevA.03 25-Dec-2016

 ------------------
 #p CCSD(T)/cc-pVTZ
 ------------------

 ------------
 H2O_H2O_3888
 ------------
 Symbolic Z-matrix:
 Charge =  0 Multiplicity = 1

                         Standard orientation:
 ---------------------------------------------------------------------
 Center     Atomic      Atomic             Coordinates (Angstroms)
 Number     Number       Type             X           Y           Z
 ---------------------------------------------------------------------
      1          8           0        0.042965   -2.843392    0.000000
      2          1           0       -0.757343   -3.413491    0.000000
      3          1           0        0.841798   -3.415556    0.000000
      4          8           0        0.042965    2.882193    0.000000
      5          1           0        0.142021    3.859789    0.000000
      6          1           0       -0.913918    2.658852    0.000000
 ---------------------------------------------------------------------

 SCF Done:  E(RHF) =  -152.106993111     A.U. after   10 cycles
 E2 =    -0.5259269788D+00 EUMP2 =    -0.15263292009022D+03
 CCSD(T)
 CCSD(T)= -0.15266014832D+03

 The electronic state is 1-A'.
 Alpha  occ. eigenvalues --  -20.55342 -20.55067  -1.32639  -1.32362  -0.70046
 Alpha  occ. eigenvalues --   -0.69763  -0.56067  -0.55790  -0.49748  -0.49471
 Alpha virt. eigenvalues --    0.14256   0.14612   0.20342   0.20656   0.54514
 Alpha virt. eigenvalues --    0.54820   0.57401   0.57679   0.68026   0.68571
 Alpha virt. eigenvalues --    0.79132   0.79403   0.80569   0.80863   0.82518

 Mulliken charges:
               1
     1  O   -0.506450
     2  H    0.251940
     3  H    0.254513
     4  O   -0.506192
     5  H    0.251062
     6  H    0.255128
 Sum of Mulliken charges =  -0.00000

 Dipole moment (field-independent basis, Debye):
    X=             -1.4739    Y=             -0.6801    Z=              0.0000  Tot=              1.6233
 Quadrupole moment (field-independent basis, Debye-Ang):
   XX=             -8.9656   YY=              8.0843   ZZ=            -14.7112
   XY=             -3.4091   XZ=              0.0000   YZ=              0.0000

 Normal termination of Gaussian 16 at Sat Aug 27 04:05:03 2022.
