 Gaussian 16, Revision A.03,
 Gaussian 16:  ES64L-G16RevA.03 25-Dec-2016

 ------------------
 #p CCSD(T)/cc-pVTZ
 ------------------

 ------------
 H2O_H2O_4472
 ------------
 Symbolic Z-matrix:
 Charge =  0 Multiplicity = 1

                         Standard orientation:
 ---------------------------------------------------------------------
 Center     Atomic      Atomic             Coordinates (Angstroms)
 Number     Number       Type             X           Y           Z
 ---------------------------------------------------------------------
      1          8           0        0.056701   -3.116429    0.000000
      2          1           0       -0.743748   -3.686329    0.000000
      3          1           0        0.855392   -3.688791    0.000000
      4          8           0        0.056701    3.215571    0.000000
      5          1           0       -0.403844    4.083560    0.000000
      6          1           0       -0.615015    2.498421    0.000000
 ---------------------------------------------------------------------

 SCF Done:  E(RHF) =  -152.107597724     A.U. after   10 cycles
 E2 =    -0.5258630857D+00 EUMP2 =    -0.15263346080993D+03
 CCSD(T)
 CCSD(T)= -0.15266067684D+03

 The electronic state is 1-A'.
 Alpha  occ. eigenvalues --  -20.55712 -20.55143  -1.33012  -1.32442  -0.70417
 Alpha  occ. eigenvalues --   -0.69841  -0.56468  -0.55893  -0.50125  -0.49557
 Alpha virt. eigenvalues --    0.13964   0.14558   0.20063   0.20674   0.54141
 Alpha virt. eigenvalues --    0.54730   0.57077   0.57645   0.67677   0.68323
 Alpha virt. eigenvalues --    0.78756   0.79314   0.80182   0.80771   0.82132

 Mulliken charges:
               1
     1  O   -0.510018
     2  H    0.253824
     3  H    0.256196
     4  O   -0.509672
     5  H    0.252358
     6  H    0.257312
 Sum of Mulliken charges =   0.00000

 Dipole moment (field-independent basis, Debye):
    X=             -1.9491    Y=             -1.7327    Z=              0.0000  Tot=              2.6079
 Quadrupole moment (field-independent basis, Debye-Ang):
   XX=             -9.8282   YY=              4.1872   ZZ=            -14.7125
   XY=             -6.1628   XZ=              0.0000   YZ=              0.0000

 Normal termination of Gaussian 16 at Sat Aug 27 07:30:24 2022.
