 Gaussian 16, Revision A.03,
 Gaussian 16:  ES64L-G16RevA.03 25-Dec-2016

 ------------------
 #p CCSD(T)/cc-pVTZ
 ------------------

 -----------
 H2O_H2O_892
 -----------
 Symbolic Z-matrix:
 Charge =  0 Multiplicity = 1

                         Standard orientation:
 ---------------------------------------------------------------------
 Center     Atomic      Atomic             Coordinates (Angstroms)
 Number     Number       Type             X           Y           Z
 ---------------------------------------------------------------------
      1          8           0        0.051334   -1.234547    0.000000
      2          1           0       -0.750221   -1.802891    0.000000
      3          1           0        0.848911   -1.808460    0.000000
      4          8           0        0.051334    1.297895    0.000000
      5          1           0       -0.103879    2.268161    0.000000
      6          1           0       -0.816152    0.836405    0.000000
 ---------------------------------------------------------------------

 SCF Done:  E(RHF) =  -152.099662334     A.U. after   11 cycles
 E2 =    -0.5292303749D+00 EUMP2 =    -0.15262889270868D+03
 CCSD(T)
 CCSD(T)= -0.15265603042D+03

 The electronic state is 1-A'.
 Alpha  occ. eigenvalues --  -20.55164 -20.52823  -1.32807  -1.30075  -0.70204
 Alpha  occ. eigenvalues --   -0.67980  -0.56180  -0.52702  -0.49925  -0.47092
 Alpha virt. eigenvalues --    0.13646   0.17586   0.19930   0.24027   0.52798
 Alpha virt. eigenvalues --    0.57292   0.58993   0.59579   0.70983   0.74912
 Alpha virt. eigenvalues --    0.77219   0.81146   0.82959   0.83730   0.84861

 Mulliken charges:
               1
     1  O   -0.470758
     2  H    0.230682
     3  H    0.249190
     4  O   -0.476335
     5  H    0.215917
     6  H    0.251304
 Sum of Mulliken charges =  -0.00000

 Dipole moment (field-independent basis, Debye):
    X=             -1.6098    Y=             -1.2627    Z=              0.0000  Tot=              2.0459
 Quadrupole moment (field-independent basis, Debye-Ang):
   XX=             -9.5181   YY=             -3.7075   ZZ=            -14.7241
   XY=             -1.7370   XZ=              0.0000   YZ=              0.0000

 Normal termination of Gaussian 16 at Fri Aug 26 20:55:40 2022.
