 Gaussian 16, Revision A.03,
 Gaussian 16:  ES64L-G16RevA.03 25-Dec-2016

 ------------------
 #p CCSD(T)/cc-pVTZ
 ------------------

 ------------
 H2O_H2O_2710
 ------------
 Symbolic Z-matrix:
 Charge =  0 Multiplicity = 1

                         Standard orientation:
 ---------------------------------------------------------------------
 Center     Atomic      Atomic             Coordinates (Angstroms)
 Number     Number       Type             X           Y           Z
 ---------------------------------------------------------------------
      1          8           0        0.034784   -2.226787    0.000000
      2          1           0       -0.765550   -2.796850    0.000000
      3          1           0        0.833591   -2.798988    0.000000
      4          8           0        0.034784    2.250299    0.000000
      5          1           0        0.322700    3.189773    0.000000
      6          1           0       -0.947286    2.217973    0.000000
 ---------------------------------------------------------------------

 SCF Done:  E(RHF) =  -152.106195408     A.U. after   10 cycles
 E2 =    -0.5260827579D+00 EUMP2 =    -0.15263227816622D+03
 CCSD(T)
 CCSD(T)= -0.15265951582D+03

 The electronic state is 1-A'.
 Alpha  occ. eigenvalues --  -20.55009 -20.54731  -1.32300  -1.32018  -0.69712
 Alpha  occ. eigenvalues --   -0.69420  -0.55691  -0.55398  -0.49403  -0.49123
 Alpha virt. eigenvalues --    0.14085   0.15265   0.20450   0.21024   0.54463
 Alpha virt. eigenvalues --    0.55261   0.57662   0.57949   0.65786   0.72049
 Alpha virt. eigenvalues --    0.79437   0.79781   0.80791   0.81326   0.82572

 Mulliken charges:
               1
     1  O   -0.501445
     2  H    0.248709
     3  H    0.252837
     4  O   -0.501024
     5  H    0.247635
     6  H    0.253288
 Sum of Mulliken charges =  -0.00000

 Dipole moment (field-independent basis, Debye):
    X=             -1.1834    Y=             -0.4194    Z=              0.0000  Tot=              1.2555
 Quadrupole moment (field-independent basis, Debye-Ang):
   XX=             -8.5754   YY=              4.7081   ZZ=            -14.7105
   XY=             -1.8585   XZ=              0.0000   YZ=              0.0000

 Normal termination of Gaussian 16 at Fri Aug 26 15:20:00 2022.
