 Gaussian 16, Revision A.03,
 Gaussian 16:  ES64L-G16RevA.03 25-Dec-2016

 ------------------
 #p CCSD(T)/cc-pVTZ
 ------------------

 ------------
 H2O_H2O_1823
 ------------
 Symbolic Z-matrix:
 Charge =  0 Multiplicity = 1

                         Standard orientation:
 ---------------------------------------------------------------------
 Center     Atomic      Atomic             Coordinates (Angstroms)
 Number     Number       Type             X           Y           Z
 ---------------------------------------------------------------------
      1          8           0        0.057140   -1.703098    0.000000
      2          1           0       -0.744023   -2.271994    0.000000
      3          1           0        0.855112   -2.276461    0.000000
      4          8           0        0.057140    1.809535    0.000000
      5          1           0       -0.458140    2.646190    0.000000
      6          1           0       -0.567186    1.050770    0.000000
 ---------------------------------------------------------------------

 SCF Done:  E(RHF) =  -152.109344002     A.U. after   10 cycles
 E2 =    -0.5265390115D+00 EUMP2 =    -0.15263588301346D+03
 CCSD(T)
 CCSD(T)= -0.15266300485D+03

 The electronic state is 1-A'.
 Alpha  occ. eigenvalues --  -20.56311 -20.53862  -1.33577  -1.31168  -0.70980
 Alpha  occ. eigenvalues --   -0.68547  -0.57058  -0.54649  -0.50700  -0.48303
 Alpha virt. eigenvalues --    0.12956   0.16648   0.19688   0.24369   0.53061
 Alpha virt. eigenvalues --    0.55688   0.56562   0.58142   0.66948   0.74773
 Alpha virt. eigenvalues --    0.77346   0.77715   0.79552   0.80887   0.84245

 Mulliken charges:
               1
     1  O   -0.499214
     2  H    0.248074
     3  H    0.258768
     4  O   -0.515000
     5  H    0.242992
     6  H    0.264381
 Sum of Mulliken charges =  -0.00000

 Dipole moment (field-independent basis, Debye):
    X=             -1.9092    Y=             -2.0166    Z=              0.0000  Tot=              2.7770
 Quadrupole moment (field-independent basis, Debye-Ang):
   XX=             -9.8519   YY=             -2.6668   ZZ=            -14.7213
   XY=             -3.6187   XZ=              0.0000   YZ=              0.0000

 Normal termination of Gaussian 16 at Sat Aug 27 06:59:19 2022.
