 Gaussian 16, Revision A.03,
 Gaussian 16:  ES64L-G16RevA.03 25-Dec-2016

 ------------------
 #p CCSD(T)/cc-pVTZ
 ------------------

 -----------
 H2O_H2O_939
 -----------
 Symbolic Z-matrix:
 Charge =  0 Multiplicity = 1

                         Standard orientation:
 ---------------------------------------------------------------------
 Center     Atomic      Atomic             Coordinates (Angstroms)
 Number     Number       Type             X           Y           Z
 ---------------------------------------------------------------------
      1          8           0        0.045378   -1.271422    0.000000
      2          1           0       -0.755911   -1.840140    0.000000
      3          1           0        0.843223   -1.844962    0.000000
      4          8           0        0.045378    1.315838    0.000000
      5          1           0        0.081978    2.297758    0.000000
      6          1           0       -0.895340    1.032013    0.000000
 ---------------------------------------------------------------------

 SCF Done:  E(RHF) =  -152.099408808     A.U. after   11 cycles
 E2 =    -0.5287822022D+00 EUMP2 =    -0.15262819101011D+03
 CCSD(T)
 CCSD(T)= -0.15265539669D+03

 The electronic state is 1-A'.
 Alpha  occ. eigenvalues --  -20.54581 -20.53114  -1.32142  -1.30340  -0.69539
 Alpha  occ. eigenvalues --   -0.67978  -0.56309  -0.52327  -0.49308  -0.47318
 Alpha virt. eigenvalues --    0.13920   0.17330   0.20145   0.23310   0.53386
 Alpha virt. eigenvalues --    0.57765   0.58219   0.59678   0.70443   0.75725
 Alpha virt. eigenvalues --    0.77258   0.78173   0.83163   0.83638   0.85399

 Mulliken charges:
               1
     1  O   -0.472645
     2  H    0.229708
     3  H    0.247057
     4  O   -0.466631
     5  H    0.216615
     6  H    0.245896
 Sum of Mulliken charges =  -0.00000

 Dipole moment (field-independent basis, Debye):
    X=             -1.4308    Y=             -0.8688    Z=              0.0000  Tot=              1.6740
 Quadrupole moment (field-independent basis, Debye-Ang):
   XX=             -9.1837   YY=             -3.0352   ZZ=            -14.7229
   XY=             -1.3069   XZ=              0.0000   YZ=              0.0000

 Normal termination of Gaussian 16 at Fri Aug 26 21:21:32 2022.
