 Gaussian 16, Revision A.03,
 Gaussian 16:  ES64L-G16RevA.03 25-Dec-2016

 ------------------
 #p CCSD(T)/cc-pVTZ
 ------------------

 ------------
 H2O_H2O_2225
 ------------
 Symbolic Z-matrix:
 Charge =  0 Multiplicity = 1

                         Standard orientation:
 ---------------------------------------------------------------------
 Center     Atomic      Atomic             Coordinates (Angstroms)
 Number     Number       Type             X           Y           Z
 ---------------------------------------------------------------------
      1          8           0        0.000000   -0.000000    1.986935
      2          1           0        0.000000    0.799571    2.558067
      3          1           0       -0.000000   -0.799571    2.558067
      4          8           0        0.000000   -0.000000   -1.986935
      5          1           0       -0.000000   -0.799571   -2.558067
      6          1           0        0.000000    0.799571   -2.558067
 ---------------------------------------------------------------------

 SCF Done:  E(RHF) =  -152.105048767     A.U. after   10 cycles
 E2 =    -0.5263079069D+00 EUMP2 =    -0.15263135667363D+03
 CCSD(T)
 CCSD(T)= -0.15265860685D+03

 The electronic state is 1-AG.
 Alpha  occ. eigenvalues --  -20.54548 -20.54548  -1.31838  -1.31823  -0.69256
 Alpha  occ. eigenvalues --   -0.69241  -0.55341  -0.54947  -0.48953  -0.48901
 Alpha virt. eigenvalues --    0.14225   0.15631   0.20639   0.21120   0.54362
 Alpha virt. eigenvalues --    0.56294   0.57903   0.58170   0.62143   0.74743
 Alpha virt. eigenvalues --    0.79526   0.80337   0.80832   0.81201   0.82006

 Mulliken charges:
               1
     1  O   -0.493621
     2  H    0.246811
     3  H    0.246811
     4  O   -0.493621
     5  H    0.246811
     6  H    0.246811
 Sum of Mulliken charges =   0.00000

 Dipole moment (field-independent basis, Debye):
    X=             -0.0000    Y=              0.0000    Z=              0.0000  Tot=              0.0000
 Quadrupole moment (field-independent basis, Debye-Ang):
   XX=            -14.7093   YY=             -7.8371   ZZ=              3.7476
   XY=              0.0000   XZ=              0.0000   YZ=             -0.0000

 1\MP4DQ=-152.6404315\MP4SDQ=-152.6435161\CCSD=-152.6429168\CCSD(T)=-15
 Normal termination of Gaussian 16 at Sat Aug 27 09:18:51 2022.
