 Gaussian 16, Revision A.03,
 Gaussian 16:  ES64L-G16RevA.03 25-Dec-2016

 ------------------
 #p CCSD(T)/cc-pVTZ
 ------------------

 ------------
 H2O_H2O_4064
 ------------
 Symbolic Z-matrix:
 Charge =  0 Multiplicity = 1

                         Standard orientation:
 ---------------------------------------------------------------------
 Center     Atomic      Atomic             Coordinates (Angstroms)
 Number     Number       Type             X           Y           Z
 ---------------------------------------------------------------------
      1          8           0        0.045340   -2.933330    0.000000
      2          1           0       -0.754984   -3.503406    0.000000
      3          1           0        0.844157   -3.505517    0.000000
      4          8           0        0.045340    2.977900    0.000000
      5          1           0        0.080275    3.959881    0.000000
      6          1           0       -0.894895    2.692482    0.000000
 ---------------------------------------------------------------------

 SCF Done:  E(RHF) =  -152.107093288     A.U. after   10 cycles
 E2 =    -0.5259143228D+00 EUMP2 =    -0.15263300761087D+03
 CCSD(T)
 CCSD(T)= -0.15266023395D+03

 The electronic state is 1-A'.
 Alpha  occ. eigenvalues --  -20.55396 -20.55099  -1.32693  -1.32395  -0.70100
 Alpha  occ. eigenvalues --   -0.69796  -0.56126  -0.55828  -0.49803  -0.49505
 Alpha virt. eigenvalues --    0.14228   0.14573   0.20306   0.20633   0.54462
 Alpha virt. eigenvalues --    0.54784   0.57355   0.57654   0.68020   0.68460
 Alpha virt. eigenvalues --    0.79077   0.79369   0.80513   0.80830   0.82454

 Mulliken charges:
               1
     1  O   -0.507039
     2  H    0.252284
     3  H    0.254756
     4  O   -0.506793
     5  H    0.251383
     6  H    0.255409
 Sum of Mulliken charges =  -0.00000

 Dipole moment (field-independent basis, Debye):
    X=             -1.5564    Y=             -0.7803    Z=              0.0000  Tot=              1.7411
 Quadrupole moment (field-independent basis, Debye-Ang):
   XX=             -9.0971   YY=              8.2301   ZZ=            -14.7114
   XY=             -3.8232   XZ=              0.0000   YZ=              0.0000

 Normal termination of Gaussian 16 at Sat Aug 27 05:11:05 2022.
