 Gaussian 16, Revision A.03,
 Gaussian 16:  ES64L-G16RevA.03 25-Dec-2016

 ------------------
 #p CCSD(T)/cc-pVTZ
 ------------------

 ------------
 H2O_H2O_4772
 ------------
 Symbolic Z-matrix:
 Charge =  0 Multiplicity = 1

                         Standard orientation:
 ---------------------------------------------------------------------
 Center     Atomic      Atomic             Coordinates (Angstroms)
 Number     Number       Type             X           Y           Z
 ---------------------------------------------------------------------
      1          8           0        0.056697   -3.275975    0.000000
      2          1           0       -0.743710   -3.845935    0.000000
      3          1           0        0.855430   -3.848279    0.000000
      4          8           0        0.056697    3.375126    0.000000
      5          1           0       -0.403912    4.243081    0.000000
      6          1           0       -0.614966    2.657927    0.000000
 ---------------------------------------------------------------------

 SCF Done:  E(RHF) =  -152.107577727     A.U. after   10 cycles
 E2 =    -0.5258606631D+00 EUMP2 =    -0.15263343839001D+03
 CCSD(T)
 CCSD(T)= -0.15266065512D+03

 The electronic state is 1-A'.
 Alpha  occ. eigenvalues --  -20.55705 -20.55193  -1.33004  -1.32492  -0.70410
 Alpha  occ. eigenvalues --   -0.69892  -0.56459  -0.55943  -0.50117  -0.49606
 Alpha virt. eigenvalues --    0.13982   0.14499   0.20069   0.20612   0.54149
 Alpha virt. eigenvalues --    0.54679   0.57083   0.57595   0.67710   0.68251
 Alpha virt. eigenvalues --    0.78763   0.79266   0.80190   0.80729   0.82118

 Mulliken charges:
               1
     1  O   -0.509891
     2  H    0.253920
     3  H    0.255971
     4  O   -0.509608
     5  H    0.252660
     6  H    0.256948
 Sum of Mulliken charges =  -0.00000

 Dipole moment (field-independent basis, Debye):
    X=             -1.9502    Y=             -1.7298    Z=              0.0000  Tot=              2.6068
 Quadrupole moment (field-independent basis, Debye-Ang):
   XX=             -9.8285   YY=              4.9069   ZZ=            -14.7124
   XY=             -6.4722   XZ=              0.0000   YZ=              0.0000

 Normal termination of Gaussian 16 at Sat Aug 27 09:15:11 2022.
