 Gaussian 16, Revision A.03,
 Gaussian 16:  ES64L-G16RevA.03 25-Dec-2016

 ------------------
 #p CCSD(T)/cc-pVTZ
 ------------------

 ------------
 H2O_H2O_1060
 ------------
 Symbolic Z-matrix:
 Charge =  0 Multiplicity = 1

                         Standard orientation:
 ---------------------------------------------------------------------
 Center     Atomic      Atomic             Coordinates (Angstroms)
 Number     Number       Type             X           Y           Z
 ---------------------------------------------------------------------
      1          8           0        0.034794   -1.349289    0.000000
      2          1           0       -0.766031   -1.918661    0.000000
      3          1           0        0.833107   -1.922178    0.000000
      4          8           0        0.034794    1.372740    0.000000
      5          1           0        0.323520    2.311965    0.000000
      6          1           0       -0.947303    1.341262    0.000000
 ---------------------------------------------------------------------

 SCF Done:  E(RHF) =  -152.099935951     A.U. after   11 cycles
 E2 =    -0.5281786638D+00 EUMP2 =    -0.15262811461468D+03
 CCSD(T)
 CCSD(T)= -0.15265537731D+03

 The electronic state is 1-A'.
 Alpha  occ. eigenvalues --  -20.54101 -20.53424  -1.31565  -1.30656  -0.68966
 Alpha  occ. eigenvalues --   -0.68144  -0.56155  -0.52310  -0.48763  -0.47606
 Alpha virt. eigenvalues --    0.14170   0.17069   0.20376   0.22591   0.52726
 Alpha virt. eigenvalues --    0.58219   0.58501   0.60061   0.69355   0.76627
 Alpha virt. eigenvalues --    0.76693   0.77457   0.82039   0.83276   0.85854

 Mulliken charges:
               1
     1  O   -0.473010
     2  H    0.230212
     3  H    0.243266
     4  O   -0.463685
     5  H    0.222402
     6  H    0.240815
 Sum of Mulliken charges =   0.00000

 Dipole moment (field-independent basis, Debye):
    X=             -1.1122    Y=             -0.4510    Z=              0.0000  Tot=              1.2001
 Quadrupole moment (field-independent basis, Debye-Ang):
   XX=             -8.6664   YY=             -2.0619   ZZ=            -14.7180
   XY=             -0.8511   XZ=              0.0000   YZ=              0.0000

 Normal termination of Gaussian 16 at Sat Aug 27 01:45:35 2022.
