 Gaussian 16, Revision A.03,
 Gaussian 16:  ES64L-G16RevA.03 25-Dec-2016

 ------------------
 #p CCSD(T)/cc-pVTZ
 ------------------

 ------------
 H2O_H2O_4174
 ------------
 Symbolic Z-matrix:
 Charge =  0 Multiplicity = 1

                         Standard orientation:
 ---------------------------------------------------------------------
 Center     Atomic      Atomic             Coordinates (Angstroms)
 Number     Number       Type             X           Y           Z
 ---------------------------------------------------------------------
      1          8           0        0.057207   -2.948788    0.000000
      2          1           0       -0.743298   -3.518611    0.000000
      3          1           0        0.855842   -3.521227    0.000000
      4          8           0        0.057207    3.062827    0.000000
      5          1           0       -0.512617    3.863331    0.000000
      6          1           0       -0.515233    2.264191    0.000000
 ---------------------------------------------------------------------

 SCF Done:  E(RHF) =  -152.107760825     A.U. after   10 cycles
 E2 =    -0.5258549249D+00 EUMP2 =    -0.15263361575014D+03
 CCSD(T)
 CCSD(T)= -0.15266082784D+03

 The electronic state is 1-A'.
 Alpha  occ. eigenvalues --  -20.55803 -20.55075  -1.33104  -1.32375  -0.70509
 Alpha  occ. eigenvalues --   -0.69773  -0.56568  -0.55831  -0.50218  -0.49492
 Alpha virt. eigenvalues --    0.13845   0.14664   0.19991   0.20787   0.54046
 Alpha virt. eigenvalues --    0.54790   0.56997   0.57715   0.67484   0.68457
 Alpha virt. eigenvalues --    0.78664   0.79376   0.80085   0.80743   0.82190

 Mulliken charges:
               1
     1  O   -0.510984
     2  H    0.254155
     3  H    0.256841
     4  O   -0.510486
     5  H    0.252200
     6  H    0.258273
 Sum of Mulliken charges =  -0.00000

 Dipole moment (field-independent basis, Debye):
    X=             -1.9650    Y=             -1.9976    Z=              0.0000  Tot=              2.8021
 Quadrupole moment (field-independent basis, Debye-Ang):
   XX=             -9.8641   YY=              1.9081   ZZ=            -14.7130
   XY=             -6.1721   XZ=              0.0000   YZ=              0.0000

 Normal termination of Gaussian 16 at Sat Aug 27 05:48:11 2022.
