 Gaussian 16, Revision A.03,
 Gaussian 16:  ES64L-G16RevA.03 25-Dec-2016

 ------------------
 #p CCSD(T)/cc-pVTZ
 ------------------

 ------------
 H2O_H2O_1860
 ------------
 Symbolic Z-matrix:
 Charge =  0 Multiplicity = 1

                         Standard orientation:
 ---------------------------------------------------------------------
 Center     Atomic      Atomic             Coordinates (Angstroms)
 Number     Number       Type             X           Y           Z
 ---------------------------------------------------------------------
      1          8           0        0.034788   -1.774739    0.000000
      2          1           0       -0.765739   -2.344531    0.000000
      3          1           0        0.833401   -2.347210    0.000000
      4          8           0        0.034788    1.798227    0.000000
      5          1           0        0.323022    2.737602    0.000000
      6          1           0       -0.947293    1.766233    0.000000
 ---------------------------------------------------------------------

 SCF Done:  E(RHF) =  -152.105162345     A.U. after   10 cycles
 E2 =    -0.5265651223D+00 EUMP2 =    -0.15263172746698D+03
 CCSD(T)
 CCSD(T)= -0.15265895578D+03

 The electronic state is 1-A'.
 Alpha  occ. eigenvalues --  -20.54729 -20.54276  -1.32007  -1.31544  -0.69429
 Alpha  occ. eigenvalues --   -0.68945  -0.55513  -0.54657  -0.49114  -0.48640
 Alpha virt. eigenvalues --    0.13925   0.16117   0.20409   0.21671   0.53153
 Alpha virt. eigenvalues --    0.55863   0.57878   0.58440   0.63092   0.76500
 Alpha virt. eigenvalues --    0.78906   0.79101   0.80498   0.80968   0.83990

 Mulliken charges:
               1
     1  O   -0.490226
     2  H    0.241891
     3  H    0.249185
     4  O   -0.490734
     5  H    0.240161
     6  H    0.249723
 Sum of Mulliken charges =   0.00000

 Dipole moment (field-independent basis, Debye):
    X=             -1.1633    Y=             -0.4346    Z=              0.0000  Tot=              1.2419
 Quadrupole moment (field-independent basis, Debye-Ang):
   XX=             -8.5978   YY=              1.3595   ZZ=            -14.7109
   XY=             -1.3323   XZ=              0.0000   YZ=              0.0000

 Normal termination of Gaussian 16 at Sat Aug 27 07:13:14 2022.
