 Gaussian 16, Revision A.03,
 Gaussian 16:  ES64L-G16RevA.03 25-Dec-2016

 ------------------
 #p CCSD(T)/cc-pVTZ
 ------------------

 ------------
 H2O_H2O_1827
 ------------
 Symbolic Z-matrix:
 Charge =  0 Multiplicity = 1

                         Standard orientation:
 ---------------------------------------------------------------------
 Center     Atomic      Atomic             Coordinates (Angstroms)
 Number     Number       Type             X           Y           Z
 ---------------------------------------------------------------------
      1          8           0        0.007455   -1.773672    0.000000
      2          1           0       -0.792322   -2.344515    0.000000
      3          1           0        0.806819   -2.345093    0.000000
      4          8           0        0.007455    1.774644    0.000000
      5          1           0        0.725880    2.444995    0.000000
      6          1           0       -0.859657    2.236839    0.000000
 ---------------------------------------------------------------------

 SCF Done:  E(RHF) =  -152.104145331     A.U. after   10 cycles
 E2 =    -0.5266207404D+00 EUMP2 =    -0.15263076607127D+03
 CCSD(T)
 CCSD(T)= -0.15265802162D+03

 The electronic state is 1-A'.
 Alpha  occ. eigenvalues --  -20.54323 -20.54305  -1.31620  -1.31565  -0.69042
 Alpha  occ. eigenvalues --   -0.68992  -0.55318  -0.54376  -0.48757  -0.48614
 Alpha virt. eigenvalues --    0.14229   0.16062   0.20607   0.21399   0.53445
 Alpha virt. eigenvalues --    0.57429   0.58003   0.58392   0.61113   0.75845
 Alpha virt. eigenvalues --    0.79073   0.79605   0.80363   0.81150   0.83687

 Mulliken charges:
               1
     1  O   -0.485982
     2  H    0.242216
     3  H    0.243801
     4  O   -0.485976
     5  H    0.242077
     6  H    0.243864
 Sum of Mulliken charges =   0.00000

 Dipole moment (field-independent basis, Debye):
    X=             -0.2494    Y=             -0.0180    Z=              0.0000  Tot=              0.2500
 Quadrupole moment (field-independent basis, Debye-Ang):
   XX=             -7.8898   YY=              1.9411   ZZ=            -14.7089
   XY=             -0.2304   XZ=              0.0000   YZ=              0.0000

 Normal termination of Gaussian 16 at Sat Aug 27 07:01:00 2022.
