 Gaussian 16, Revision A.03,
 Gaussian 16:  ES64L-G16RevA.03 25-Dec-2016

 ------------------
 #p CCSD(T)/cc-pVTZ
 ------------------

 ------------
 H2O_H2O_3191
 ------------
 Symbolic Z-matrix:
 Charge =  0 Multiplicity = 1

                         Standard orientation:
 ---------------------------------------------------------------------
 Center     Atomic      Atomic             Coordinates (Angstroms)
 Number     Number       Type             X           Y           Z
 ---------------------------------------------------------------------
      1          8           0        0.049510   -2.461253    0.000000
      2          1           0       -0.751036   -3.031016    0.000000
      3          1           0        0.848103   -3.033751    0.000000
      4          8           0        0.049510    2.518197    0.000000
      5          1           0       -0.043646    3.496372    0.000000
      6          1           0       -0.845584    2.112844    0.000000
 ---------------------------------------------------------------------

 SCF Done:  E(RHF) =  -152.107069984     A.U. after   10 cycles
 E2 =    -0.5259602271D+00 EUMP2 =    -0.15263303021137D+03
 CCSD(T)
 CCSD(T)= -0.15266025316D+03

 The electronic state is 1-A'.
 Alpha  occ. eigenvalues --  -20.55414 -20.54864  -1.32710  -1.32157  -0.70118
 Alpha  occ. eigenvalues --   -0.69551  -0.56139  -0.55587  -0.49818  -0.49269
 Alpha virt. eigenvalues --    0.13931   0.15010   0.20233   0.20976   0.54360
 Alpha virt. eigenvalues --    0.54978   0.57338   0.57841   0.67185   0.69837
 Alpha virt. eigenvalues --    0.79063   0.79599   0.80395   0.80970   0.82777

 Mulliken charges:
               1
     1  O   -0.506738
     2  H    0.251226
     3  H    0.255611
     4  O   -0.506305
     5  H    0.249468
     6  H    0.256738
 Sum of Mulliken charges =   0.00000

 Dipole moment (field-independent basis, Debye):
    X=             -1.6924    Y=             -1.0079    Z=              0.0000  Tot=              1.9698
 Quadrupole moment (field-independent basis, Debye-Ang):
   XX=             -9.3462   YY=              4.3680   ZZ=            -14.7118
   XY=             -3.5848   XZ=              0.0000   YZ=              0.0000

 Normal termination of Gaussian 16 at Fri Aug 26 20:14:45 2022.
