 Gaussian 16, Revision A.03,
 Gaussian 16:  ES64L-G16RevA.03 25-Dec-2016

 ------------------
 #p CCSD(T)/cc-pVTZ
 ------------------

 ------------
 H2O_H2O_2685
 ------------
 Symbolic Z-matrix:
 Charge =  0 Multiplicity = 1

                         Standard orientation:
 ---------------------------------------------------------------------
 Center     Atomic      Atomic             Coordinates (Angstroms)
 Number     Number       Type             X           Y           Z
 ---------------------------------------------------------------------
      1          8           0        0.034784   -2.213492    0.000000
      2          1           0       -0.765554   -2.783548    0.000000
      3          1           0        0.833586   -2.785699    0.000000
      4          8           0        0.034784    2.237003    0.000000
      5          1           0        0.322708    3.176474    0.000000
      6          1           0       -0.947286    2.204685    0.000000
 ---------------------------------------------------------------------

 SCF Done:  E(RHF) =  -152.106176613     A.U. after   10 cycles
 E2 =    -0.5260893241D+00 EUMP2 =    -0.15263226593665D+03
 CCSD(T)
 CCSD(T)= -0.15265950347D+03

 The electronic state is 1-A'.
 Alpha  occ. eigenvalues --  -20.55003 -20.54720  -1.32293  -1.32008  -0.69705
 Alpha  occ. eigenvalues --   -0.69409  -0.55684  -0.55385  -0.49396  -0.49113
 Alpha virt. eigenvalues --    0.14074   0.15287   0.20449   0.21038   0.54440
 Alpha virt. eigenvalues --    0.55275   0.57667   0.57958   0.65673   0.72201
 Alpha virt. eigenvalues --    0.79439   0.79796   0.80788   0.81326   0.82566

 Mulliken charges:
               1
     1  O   -0.501292
     2  H    0.248604
     3  H    0.252798
     4  O   -0.500872
     5  H    0.247516
     6  H    0.253247
 Sum of Mulliken charges =  -0.00000

 Dipole moment (field-independent basis, Debye):
    X=             -1.1831    Y=             -0.4197    Z=              0.0000  Tot=              1.2553
 Quadrupole moment (field-independent basis, Debye-Ang):
   XX=             -8.5757   YY=              4.6110   ZZ=            -14.7105
   XY=             -1.8430   XZ=              0.0000   YZ=              0.0000

 Normal termination of Gaussian 16 at Fri Aug 26 15:05:30 2022.
