 Gaussian 16, Revision A.03,
 Gaussian 16:  ES64L-G16RevA.03 25-Dec-2016

 ------------------
 #p CCSD(T)/cc-pVTZ
 ------------------

 ------------
 H2O_H2O_1836
 ------------
 Symbolic Z-matrix:
 Charge =  0 Multiplicity = 1

                         Standard orientation:
 ---------------------------------------------------------------------
 Center     Atomic      Atomic             Coordinates (Angstroms)
 Number     Number       Type             X           Y           Z
 ---------------------------------------------------------------------
      1          8           0        0.037683   -1.758879    0.000000
      2          1           0       -0.762931   -2.328548    0.000000
      3          1           0        0.836209   -2.331472    0.000000
      4          8           0        0.037683    1.787087    0.000000
      5          1           0        0.264008    2.743269    0.000000
      6          1           0       -0.940218    1.691081    0.000000
 ---------------------------------------------------------------------

 SCF Done:  E(RHF) =  -152.105311266     A.U. after   10 cycles
 E2 =    -0.5265833707D+00 EUMP2 =    -0.15263189463706D+03
 CCSD(T)
 CCSD(T)= -0.15265911772D+03

 The electronic state is 1-A'.
 Alpha  occ. eigenvalues --  -20.54801 -20.54245  -1.32078  -1.31512  -0.69500
 Alpha  occ. eigenvalues --   -0.68909  -0.55568  -0.54655  -0.49186  -0.48611
 Alpha virt. eigenvalues --    0.13871   0.16164   0.20366   0.21777   0.53166
 Alpha virt. eigenvalues --    0.55700   0.57829   0.58487   0.63375   0.76660
 Alpha virt. eigenvalues --    0.78810   0.78919   0.80363   0.81011   0.84359

 Mulliken charges:
               1
     1  O   -0.490429
     2  H    0.241748
     3  H    0.249772
     4  O   -0.491258
     5  H    0.239690
     6  H    0.250478
 Sum of Mulliken charges =   0.00000

 Dipole moment (field-independent basis, Debye):
    X=             -1.2588    Y=             -0.5228    Z=              0.0000  Tot=              1.3631
 Quadrupole moment (field-independent basis, Debye-Ang):
   XX=             -8.7277   YY=              1.0955   ZZ=            -14.7114
   XY=             -1.4817   XZ=              0.0000   YZ=              0.0000

 Normal termination of Gaussian 16 at Sat Aug 27 07:05:16 2022.
