 Gaussian 16, Revision A.03,
 Gaussian 16:  ES64L-G16RevA.03 25-Dec-2016

 ------------------
 #p CCSD(T)/cc-pVTZ
 ------------------

 ------------
 H2O_H2O_4448
 ------------
 Symbolic Z-matrix:
 Charge =  0 Multiplicity = 1

                         Standard orientation:
 ---------------------------------------------------------------------
 Center     Atomic      Atomic             Coordinates (Angstroms)
 Number     Number       Type             X           Y           Z
 ---------------------------------------------------------------------
      1          8           0        0.057074   -3.099095    0.000000
      2          1           0       -0.743385   -3.668982    0.000000
      3          1           0        0.855755   -3.671470    0.000000
      4          8           0        0.057074    3.205673    0.000000
      5          1           0       -0.459241    4.041690    0.000000
      6          1           0       -0.566313    2.446136    0.000000
 ---------------------------------------------------------------------

 SCF Done:  E(RHF) =  -152.107657759     A.U. after   10 cycles
 E2 =    -0.5258580524D+00 EUMP2 =    -0.15263351581113D+03
 CCSD(T)
 CCSD(T)= -0.15266073056D+03

 The electronic state is 1-A'.
 Alpha  occ. eigenvalues --  -20.55750 -20.55134  -1.33050  -1.32434  -0.70456
 Alpha  occ. eigenvalues --   -0.69833  -0.56509  -0.55887  -0.50163  -0.49549
 Alpha virt. eigenvalues --    0.13927   0.14574   0.20033   0.20695   0.54102
 Alpha virt. eigenvalues --    0.54737   0.57043   0.57657   0.67624   0.68333
 Alpha virt. eigenvalues --    0.78717   0.79321   0.80142   0.80771   0.82105

 Mulliken charges:
               1
     1  O   -0.510374
     2  H    0.254000
     3  H    0.256377
     4  O   -0.509994
     5  H    0.252417
     6  H    0.257575
 Sum of Mulliken charges =  -0.00000

 Dipole moment (field-independent basis, Debye):
    X=             -1.9618    Y=             -1.8630    Z=              0.0000  Tot=              2.7054
 Quadrupole moment (field-independent basis, Debye-Ang):
   XX=             -9.8550   YY=              3.3201   ZZ=            -14.7127
   XY=             -6.3102   XZ=              0.0000   YZ=              0.0000

 Normal termination of Gaussian 16 at Sat Aug 27 07:22:31 2022.
