 Gaussian 16, Revision A.03,
 Gaussian 16:  ES64L-G16RevA.03 25-Dec-2016

 ------------------
 #p CCSD(T)/cc-pVTZ
 ------------------

 ------------
 H2O_H2O_2262
 ------------
 Symbolic Z-matrix:
 Charge =  0 Multiplicity = 1

                         Standard orientation:
 ---------------------------------------------------------------------
 Center     Atomic      Atomic             Coordinates (Angstroms)
 Number     Number       Type             X           Y           Z
 ---------------------------------------------------------------------
      1          8           0        0.040414   -1.982136    0.000000
      2          1           0       -0.760149   -2.551876    0.000000
      3          1           0        0.838991   -2.554658    0.000000
      4          8           0        0.040414    2.015451    0.000000
      5          1           0        0.203631    2.984403    0.000000
      6          1           0       -0.929099    1.855606    0.000000
 ---------------------------------------------------------------------

 SCF Done:  E(RHF) =  -152.106099235     A.U. after   10 cycles
 E2 =    -0.5262453584D+00 EUMP2 =    -0.15263234459379D+03
 CCSD(T)
 CCSD(T)= -0.15265956852D+03

 The electronic state is 1-A'.
 Alpha  occ. eigenvalues --  -20.55019 -20.54503  -1.32302  -1.31782  -0.69717
 Alpha  occ. eigenvalues --   -0.69177  -0.55698  -0.55125  -0.49406  -0.48890
 Alpha virt. eigenvalues --    0.13797   0.15738   0.20349   0.21441   0.53682
 Alpha virt. eigenvalues --    0.55287   0.57671   0.58186   0.64157   0.74888
 Alpha virt. eigenvalues --    0.79254   0.80075   0.80179   0.81271   0.83144

 Mulliken charges:
               1
     1  O   -0.498637
     2  H    0.246407
     3  H    0.252805
     4  O   -0.498868
     5  H    0.244660
     6  H    0.253633
 Sum of Mulliken charges =  -0.00000

 Dipole moment (field-independent basis, Debye):
    X=             -1.3652    Y=             -0.6049    Z=              0.0000  Tot=              1.4932
 Quadrupole moment (field-independent basis, Debye-Ang):
   XX=             -8.8456   YY=              2.5238   ZZ=            -14.7114
   XY=             -1.9583   XZ=              0.0000   YZ=              0.0000

 Normal termination of Gaussian 16 at Sat Aug 27 09:31:28 2022.
