 Gaussian 16, Revision A.03,
 Gaussian 16:  ES64L-G16RevA.03 25-Dec-2016

 ------------------
 #p CCSD(T)/cc-pVTZ
 ------------------

 ------------
 H2O_H2O_3845
 ------------
 Symbolic Z-matrix:
 Charge =  0 Multiplicity = 1

                         Standard orientation:
 ---------------------------------------------------------------------
 Center     Atomic      Atomic             Coordinates (Angstroms)
 Number     Number       Type             X           Y           Z
 ---------------------------------------------------------------------
      1          8           0        0.055238   -2.791994    0.000000
      2          1           0       -0.745289   -3.361786    0.000000
      3          1           0        0.853851   -3.364465    0.000000
      4          8           0        0.055238    2.876472    0.000000
      5          1           0       -0.287947    3.797195    0.000000
      6          1           0       -0.704422    2.253237    0.000000
 ---------------------------------------------------------------------

 SCF Done:  E(RHF) =  -152.107499126     A.U. after   10 cycles
 E2 =    -0.5258878382D+00 EUMP2 =    -0.15263338696444D+03
 CCSD(T)
 CCSD(T)= -0.15266060381D+03

 The electronic state is 1-A'.
 Alpha  occ. eigenvalues --  -20.55640 -20.55022  -1.32939  -1.32320  -0.70345
 Alpha  occ. eigenvalues --   -0.69716  -0.56391  -0.55767  -0.50051  -0.49435
 Alpha virt. eigenvalues --    0.13944   0.14727   0.20110   0.20811   0.54204
 Alpha virt. eigenvalues --    0.54850   0.57140   0.57745   0.67579   0.68656
 Alpha virt. eigenvalues --    0.78830   0.79434   0.80251   0.80775   0.82415

 Mulliken charges:
               1
     1  O   -0.509434
     2  H    0.253085
     3  H    0.256372
     4  O   -0.508985
     5  H    0.251310
     6  H    0.257654
 Sum of Mulliken charges =  -0.00000

 Dipole moment (field-independent basis, Debye):
    X=             -1.8952    Y=             -1.4837    Z=              0.0000  Tot=              2.4069
 Quadrupole moment (field-independent basis, Debye-Ang):
   XX=             -9.7234   YY=              4.0582   ZZ=            -14.7124
   XY=             -5.1235   XZ=              0.0000   YZ=              0.0000

 Normal termination of Gaussian 16 at Sat Aug 27 03:44:40 2022.
