 Gaussian 16, Revision A.03,
 Gaussian 16:  ES64L-G16RevA.03 25-Dec-2016

 ------------------
 #p CCSD(T)/cc-pVTZ
 ------------------

 ------------
 H2O_H2O_3445
 ------------
 Symbolic Z-matrix:
 Charge =  0 Multiplicity = 1

                         Standard orientation:
 ---------------------------------------------------------------------
 Center     Atomic      Atomic             Coordinates (Angstroms)
 Number     Number       Type             X           Y           Z
 ---------------------------------------------------------------------
      1          8           0        0.055244   -2.579268    0.000000
      2          1           0       -0.745361   -3.148950    0.000000
      3          1           0        0.853779   -3.151847    0.000000
      4          8           0        0.055244    2.663730    0.000000
      5          1           0       -0.287816    3.584500    0.000000
      6          1           0       -0.704501    2.040598    0.000000
 ---------------------------------------------------------------------

 SCF Done:  E(RHF) =  -152.107529910     A.U. after   10 cycles
 E2 =    -0.5259084785D+00 EUMP2 =    -0.15263343838803D+03
 CCSD(T)
 CCSD(T)= -0.15266065218D+03

 The electronic state is 1-A'.
 Alpha  occ. eigenvalues --  -20.55649 -20.54914  -1.32946  -1.32211  -0.70353
 Alpha  occ. eigenvalues --   -0.69603  -0.56398  -0.55657  -0.50058  -0.49326
 Alpha virt. eigenvalues --    0.13787   0.14935   0.20088   0.20984   0.54171
 Alpha virt. eigenvalues --    0.54915   0.57138   0.57813   0.67245   0.69220
 Alpha virt. eigenvalues --    0.78825   0.79539   0.80181   0.80640   0.82703

 Mulliken charges:
               1
     1  O   -0.509441
     2  H    0.252713
     3  H    0.256834
     4  O   -0.508958
     5  H    0.250496
     6  H    0.258357
 Sum of Mulliken charges =   0.00000

 Dipole moment (field-independent basis, Debye):
    X=             -1.8918    Y=             -1.4913    Z=              0.0000  Tot=              2.4089
 Quadrupole moment (field-independent basis, Debye-Ang):
   XX=             -9.7229   YY=              2.9846   ZZ=            -14.7127
   XY=             -4.7242   XZ=              0.0000   YZ=              0.0000

 Normal termination of Gaussian 16 at Fri Aug 26 22:23:52 2022.
