 Gaussian 16, Revision A.03,
 Gaussian 16:  ES64L-G16RevA.03 25-Dec-2016

 ------------------
 #p CCSD(T)/cc-pVTZ
 ------------------

 ------------
 H2O_H2O_4299
 ------------
 Symbolic Z-matrix:
 Charge =  0 Multiplicity = 1

                         Standard orientation:
 ---------------------------------------------------------------------
 Center     Atomic      Atomic             Coordinates (Angstroms)
 Number     Number       Type             X           Y           Z
 ---------------------------------------------------------------------
      1          8           0        0.057205   -3.015265    0.000000
      2          1           0       -0.743279   -3.585117    0.000000
      3          1           0        0.855861   -3.587676    0.000000
      4          8           0        0.057205    3.129309    0.000000
      5          1           0       -0.512647    3.929793    0.000000
      6          1           0       -0.515206    2.330653    0.000000
 ---------------------------------------------------------------------

 SCF Done:  E(RHF) =  -152.107738524     A.U. after   10 cycles
 E2 =    -0.5258537083D+00 EUMP2 =    -0.15263359223240D+03
 CCSD(T)
 CCSD(T)= -0.15266080506D+03

 The electronic state is 1-A'.
 Alpha  occ. eigenvalues --  -20.55795 -20.55101  -1.33096  -1.32401  -0.70501
 Alpha  occ. eigenvalues --   -0.69799  -0.56558  -0.55856  -0.50210  -0.49517
 Alpha virt. eigenvalues --    0.13870   0.14625   0.19997   0.20750   0.54055
 Alpha virt. eigenvalues --    0.54767   0.57003   0.57692   0.67533   0.68394
 Alpha virt. eigenvalues --    0.78671   0.79351   0.80094   0.80764   0.82123

 Mulliken charges:
               1
     1  O   -0.510853
     2  H    0.254171
     3  H    0.256690
     4  O   -0.510397
     5  H    0.252348
     6  H    0.258042
 Sum of Mulliken charges =   0.00000

 Dipole moment (field-independent basis, Debye):
    X=             -1.9656    Y=             -1.9957    Z=              0.0000  Tot=              2.8011
 Quadrupole moment (field-independent basis, Debye-Ang):
   XX=             -9.8643   YY=              2.1735   ZZ=            -14.7129
   XY=             -6.3021   XZ=              0.0000   YZ=              0.0000

 Normal termination of Gaussian 16 at Sat Aug 27 06:32:02 2022.
