 Gaussian 16, Revision A.03,
 Gaussian 16:  ES64L-G16RevA.03 25-Dec-2016

 ------------------
 #p CCSD(T)/cc-pVTZ
 ------------------

 ------------
 H2O_H2O_1342
 ------------
 Symbolic Z-matrix:
 Charge =  0 Multiplicity = 1

                         Standard orientation:
 ---------------------------------------------------------------------
 Center     Atomic      Atomic             Coordinates (Angstroms)
 Number     Number       Type             X           Y           Z
 ---------------------------------------------------------------------
      1          8           0        0.051316   -1.473844    0.000000
      2          1           0       -0.749924   -2.042632    0.000000
      3          1           0        0.849211   -2.047315    0.000000
      4          8           0        0.051316    1.537249    0.000000
      5          1           0       -0.104434    2.507428    0.000000
      6          1           0       -0.815914    1.075279    0.000000
 ---------------------------------------------------------------------

 SCF Done:  E(RHF) =  -152.105812077     A.U. after   10 cycles
 E2 =    -0.5273612950D+00 EUMP2 =    -0.15263317337162D+03
 CCSD(T)
 CCSD(T)= -0.15266034499D+03

 The electronic state is 1-A'.
 Alpha  occ. eigenvalues --  -20.55393 -20.53585  -1.32710  -1.30844  -0.70132
 Alpha  occ. eigenvalues --   -0.68279  -0.56149  -0.54058  -0.49829  -0.47946
 Alpha virt. eigenvalues --    0.13583   0.16943   0.19979   0.23391   0.53978
 Alpha virt. eigenvalues --    0.56131   0.57337   0.58304   0.67483   0.75675
 Alpha virt. eigenvalues --    0.76656   0.76898   0.80008   0.82191   0.84925

 Mulliken charges:
               1
     1  O   -0.484386
     2  H    0.237997
     3  H    0.252735
     4  O   -0.491614
     5  H    0.231342
     6  H    0.253926
 Sum of Mulliken charges =  -0.00000

 Dipole moment (field-independent basis, Debye):
    X=             -1.6726    Y=             -1.2225    Z=              0.0000  Tot=              2.0717
 Quadrupole moment (field-independent basis, Debye-Ang):
   XX=             -9.4882   YY=             -2.0183   ZZ=            -14.7198
   XY=             -2.1333   XZ=              0.0000   YZ=              0.0000

 Normal termination of Gaussian 16 at Sat Aug 27 04:05:54 2022.
