 Gaussian 16, Revision A.03,
 Gaussian 16:  ES64L-G16RevA.03 25-Dec-2016

 ------------------
 #p CCSD(T)/cc-pVTZ
 ------------------

 ------------
 H2O_H2O_2238
 ------------
 Symbolic Z-matrix:
 Charge =  0 Multiplicity = 1

                         Standard orientation:
 ---------------------------------------------------------------------
 Center     Atomic      Atomic             Coordinates (Angstroms)
 Number     Number       Type             X           Y           Z
 ---------------------------------------------------------------------
      1          8           0        0.042976   -1.965888    0.000000
      2          1           0       -0.757657   -2.535530    0.000000
      3          1           0        0.841482   -2.538507    0.000000
      4          8           0        0.042976    2.004639    0.000000
      5          1           0        0.142590    2.982179    0.000000
      6          1           0       -0.914034    1.781845    0.000000
 ---------------------------------------------------------------------

 SCF Done:  E(RHF) =  -152.106253480     A.U. after   10 cycles
 E2 =    -0.5262518000D+00 EUMP2 =    -0.15263250528009D+03
 CCSD(T)
 CCSD(T)= -0.15265972400D+03

 The electronic state is 1-A'.
 Alpha  occ. eigenvalues --  -20.55091 -20.54478  -1.32373  -1.31756  -0.69788
 Alpha  occ. eigenvalues --   -0.69147  -0.55769  -0.55112  -0.49478  -0.48865
 Alpha virt. eigenvalues --    0.13722   0.15788   0.20303   0.21541   0.53619
 Alpha virt. eigenvalues --    0.55168   0.57619   0.58229   0.64297   0.75070
 Alpha virt. eigenvalues --    0.79181   0.79887   0.80204   0.81330   0.83407

 Mulliken charges:
               1
     1  O   -0.498995
     2  H    0.246420
     3  H    0.253322
     4  O   -0.499587
     5  H    0.244450
     6  H    0.254390
 Sum of Mulliken charges =  -0.00000

 Dipole moment (field-independent basis, Debye):
    X=             -1.4510    Y=             -0.7048    Z=              0.0000  Tot=              1.6131
 Quadrupole moment (field-independent basis, Debye-Ang):
   XX=             -8.9781   YY=              2.1829   ZZ=            -14.7118
   XY=             -2.1362   XZ=              0.0000   YZ=              0.0000

 Normal termination of Gaussian 16 at Sat Aug 27 09:23:10 2022.
