 Gaussian 16, Revision A.03,
 Gaussian 16:  ES64L-G16RevA.03 25-Dec-2016

 ------------------
 #p CCSD(T)/cc-pVTZ
 ------------------

 ------------
 H2O_H2O_2085
 ------------
 Symbolic Z-matrix:
 Charge =  0 Multiplicity = 1

                         Standard orientation:
 ---------------------------------------------------------------------
 Center     Atomic      Atomic             Coordinates (Angstroms)
 Number     Number       Type             X           Y           Z
 ---------------------------------------------------------------------
      1          8           0        0.034787   -1.894398    0.000000
      2          1           0       -0.765680   -2.464274    0.000000
      3          1           0        0.833460   -2.466785    0.000000
      4          8           0        0.034787    1.917894    0.000000
      5          1           0        0.322922    2.857299    0.000000
      6          1           0       -0.947291    1.885797    0.000000
 ---------------------------------------------------------------------

 SCF Done:  E(RHF) =  -152.105570592     A.U. after   10 cycles
 E2 =    -0.5263721331D+00 EUMP2 =    -0.15263194272515D+03
 CCSD(T)
 CCSD(T)= -0.15265917164D+03

 The electronic state is 1-A'.
 Alpha  occ. eigenvalues --  -20.54822 -20.54424  -1.32102  -1.31698  -0.69520
 Alpha  occ. eigenvalues --   -0.69099  -0.55534  -0.54940  -0.49205  -0.48800
 Alpha virt. eigenvalues --    0.13903   0.15877   0.20423   0.21463   0.53457
 Alpha virt. eigenvalues --    0.55628   0.57811   0.58267   0.63188   0.75614
 Alpha virt. eigenvalues --    0.79215   0.79792   0.80482   0.81000   0.83136

 Mulliken charges:
               1
     1  O   -0.494654
     2  H    0.244499
     3  H    0.250711
     4  O   -0.494858
     5  H    0.243025
     6  H    0.251278
 Sum of Mulliken charges =  -0.00000

 Dipole moment (field-independent basis, Debye):
    X=             -1.1707    Y=             -0.4298    Z=              0.0000  Tot=              1.2471
 Quadrupole moment (field-independent basis, Debye-Ang):
   XX=             -8.5890   YY=              2.2609   ZZ=            -14.7108
   XY=             -1.4709   XZ=              0.0000   YZ=              0.0000

 Normal termination of Gaussian 16 at Sat Aug 27 08:30:06 2022.
