 Gaussian 16, Revision A.03,
 Gaussian 16:  ES64L-G16RevA.03 25-Dec-2016

 ------------------
 #p CCSD(T)/cc-pVTZ
 ------------------

 ------------
 H2O_H2O_3126
 ------------
 Symbolic Z-matrix:
 Charge =  0 Multiplicity = 1

                         Standard orientation:
 ---------------------------------------------------------------------
 Center     Atomic      Atomic             Coordinates (Angstroms)
 Number     Number       Type             X           Y           Z
 ---------------------------------------------------------------------
      1          8           0        0.003735   -2.465455    0.000000
      2          1           0       -0.795910   -3.036483    0.000000
      3          1           0        0.803232   -3.036692    0.000000
      4          8           0        0.003735    2.465699    0.000000
      5          1           0        0.764322    3.087804    0.000000
      6          1           0       -0.831410    2.983423    0.000000
 ---------------------------------------------------------------------

 SCF Done:  E(RHF) =  -152.106104236     A.U. after   10 cycles
 E2 =    -0.5260314510D+00 EUMP2 =    -0.15263213568745D+03
 CCSD(T)
 CCSD(T)= -0.15265938109D+03

 The electronic state is 1-A'.
 Alpha  occ. eigenvalues --  -20.54903 -20.54901  -1.32196  -1.32193  -0.69606
 Alpha  occ. eigenvalues --   -0.69603  -0.55596  -0.55561  -0.49299  -0.49295
 Alpha virt. eigenvalues --    0.14441   0.14886   0.20604   0.20743   0.54850
 Alpha virt. eigenvalues --    0.55089   0.57742   0.57809   0.67338   0.70062
 Alpha virt. eigenvalues --    0.79553   0.79603   0.80988   0.81084   0.82670

 Mulliken charges:
               1
     1  O   -0.501192
     2  H    0.250427
     3  H    0.250766
     4  O   -0.501187
     5  H    0.250377
     6  H    0.250811
 Sum of Mulliken charges =  -0.00000

 Dipole moment (field-independent basis, Debye):
    X=             -0.1276    Y=             -0.0043    Z=              0.0000  Tot=              0.1276
 Quadrupole moment (field-independent basis, Debye-Ang):
   XX=             -7.8242   YY=              7.6436   ZZ=            -14.7098
   XY=             -0.2008   XZ=              0.0000   YZ=              0.0000

 Normal termination of Gaussian 16 at Fri Aug 26 19:38:55 2022.
