 Gaussian 16, Revision A.03,
 Gaussian 16:  ES64L-G16RevA.03 25-Dec-2016

 ------------------
 #p CCSD(T)/cc-pVTZ
 ------------------

 ------------
 H2O_H2O_3959
 ------------
 Symbolic Z-matrix:
 Charge =  0 Multiplicity = 1

                         Standard orientation:
 ---------------------------------------------------------------------
 Center     Atomic      Atomic             Coordinates (Angstroms)
 Number     Number       Type             X           Y           Z
 ---------------------------------------------------------------------
      1          8           0        0.031739   -2.893930    0.000000
      2          1           0       -0.768368   -3.464309    0.000000
      3          1           0        0.830773   -3.465814    0.000000
      4          8           0        0.031739    2.913121    0.000000
      5          1           0        0.380119    3.831890    0.000000
      6          1           0       -0.950354    2.944706    0.000000
 ---------------------------------------------------------------------

 SCF Done:  E(RHF) =  -152.106813022     A.U. after   10 cycles
 E2 =    -0.5259395898D+00 EUMP2 =    -0.15263275261148D+03
 CCSD(T)
 CCSD(T)= -0.15265998491D+03

 The electronic state is 1-A'.
 Alpha  occ. eigenvalues --  -20.55225 -20.55094  -1.32521  -1.32389  -0.69929
 Alpha  occ. eigenvalues --   -0.69793  -0.55941  -0.55809  -0.49628  -0.49496
 Alpha virt. eigenvalues --    0.14374   0.14560   0.20439   0.20591   0.54636
 Alpha virt. eigenvalues --    0.54787   0.57505   0.57640   0.68195   0.68531
 Alpha virt. eigenvalues --    0.79250   0.79380   0.80693   0.80838   0.82627

 Mulliken charges:
               1
     1  O   -0.505372
     2  H    0.251771
     3  H    0.253601
     4  O   -0.505226
     5  H    0.251273
     6  H    0.253952
 Sum of Mulliken charges =  -0.00000

 Dipole moment (field-independent basis, Debye):
    X=             -1.0889    Y=             -0.3360    Z=              0.0000  Tot=              1.1396
 Quadrupole moment (field-independent basis, Debye-Ang):
   XX=             -8.4387   YY=              9.8475   ZZ=            -14.7108
   XY=             -2.3662   XZ=              0.0000   YZ=              0.0000

 Normal termination of Gaussian 16 at Sat Aug 27 04:34:25 2022.
