 Gaussian 16, Revision A.03,
 Gaussian 16:  ES64L-G16RevA.03 25-Dec-2016

 ------------------
 #p CCSD(T)/cc-pVTZ
 ------------------

 ------------
 H2O_H2O_2216
 ------------
 Symbolic Z-matrix:
 Charge =  0 Multiplicity = 1

                         Standard orientation:
 ---------------------------------------------------------------------
 Center     Atomic      Atomic             Coordinates (Angstroms)
 Number     Number       Type             X           Y           Z
 ---------------------------------------------------------------------
      1          8           0        0.049523   -1.942735    0.000000
      2          1           0       -0.751280   -2.512139    0.000000
      3          1           0        0.847858   -2.515593    0.000000
      4          8           0        0.049523    1.999635    0.000000
      5          1           0       -0.043193    2.977852    0.000000
      6          1           0       -0.845754    1.594685    0.000000
 ---------------------------------------------------------------------

 SCF Done:  E(RHF) =  -152.106862974     A.U. after   10 cycles
 E2 =    -0.5262423284D+00 EUMP2 =    -0.15263310530233D+03
 CCSD(T)
 CCSD(T)= -0.15266030701D+03

 The electronic state is 1-A'.
 Alpha  occ. eigenvalues --  -20.55354 -20.54417  -1.32634  -1.31698  -0.70048
 Alpha  occ. eigenvalues --   -0.69078  -0.56041  -0.55097  -0.49743  -0.48813
 Alpha virt. eigenvalues --    0.13496   0.15897   0.20157   0.21880   0.53734
 Alpha virt. eigenvalues --    0.54766   0.57417   0.58355   0.64841   0.75148
 Alpha virt. eigenvalues --    0.78948   0.79455   0.80221   0.81421   0.84089

 Mulliken charges:
               1
     1  O   -0.500787
     2  H    0.247106
     3  H    0.255071
     4  O   -0.502976
     5  H    0.244504
     6  H    0.257082
 Sum of Mulliken charges =  -0.00000

 Dipole moment (field-independent basis, Debye):
    X=             -1.6709    Y=             -1.0390    Z=              0.0000  Tot=              1.9676
 Quadrupole moment (field-independent basis, Debye-Ang):
   XX=             -9.3526   YY=              1.2095   ZZ=            -14.7133
   XY=             -2.7205   XZ=              0.0000   YZ=              0.0000

 Normal termination of Gaussian 16 at Sat Aug 27 09:15:51 2022.
