 Gaussian 16, Revision A.03,
 Gaussian 16:  ES64L-G16RevA.03 25-Dec-2016

 ------------------
 #p CCSD(T)/cc-pVTZ
 ------------------

 ------------
 H2O_H2O_1034
 ------------
 Symbolic Z-matrix:
 Charge =  0 Multiplicity = 1

                         Standard orientation:
 ---------------------------------------------------------------------
 Center     Atomic      Atomic             Coordinates (Angstroms)
 Number     Number       Type             X           Y           Z
 ---------------------------------------------------------------------
      1          8           0        0.031750   -1.338344    0.000000
      2          1           0       -0.768977   -1.907855    0.000000
      3          1           0        0.830162   -1.911095    0.000000
      4          8           0        0.031750    1.357466    0.000000
      5          1           0        0.381127    2.275857    0.000000
      6          1           0       -0.950309    1.390117    0.000000
 ---------------------------------------------------------------------

 SCF Done:  E(RHF) =  -152.099103437     A.U. after   11 cycles
 E2 =    -0.5282759898D+00 EUMP2 =    -0.15262737942681D+03
 CCSD(T)
 CCSD(T)= -0.15265465233D+03

 The electronic state is 1-A'.
 Alpha  occ. eigenvalues --  -20.53945 -20.53395  -1.31444  -1.30620  -0.68836
 Alpha  occ. eigenvalues --   -0.68117  -0.56223  -0.52037  -0.48662  -0.47540
 Alpha virt. eigenvalues --    0.14232   0.17101   0.20419   0.22519   0.52399
 Alpha virt. eigenvalues --    0.58322   0.58605   0.60502   0.69726   0.76647
 Alpha virt. eigenvalues --    0.76719   0.77799   0.82156   0.83384   0.85964

 Mulliken charges:
               1
     1  O   -0.471582
     2  H    0.229582
     3  H    0.241912
     4  O   -0.461654
     5  H    0.222411
     6  H    0.239331
 Sum of Mulliken charges =  -0.00000

 Dipole moment (field-independent basis, Debye):
    X=             -1.0130    Y=             -0.3676    Z=              0.0000  Tot=              1.0776
 Quadrupole moment (field-independent basis, Debye-Ang):
   XX=             -8.5488   YY=             -2.1066   ZZ=            -14.7181
   XY=             -0.7217   XZ=              0.0000   YZ=              0.0000

 Normal termination of Gaussian 16 at Sat Aug 27 01:33:54 2022.
