 Gaussian 16, Revision A.03,
 Gaussian 16:  ES64L-G16RevA.03 25-Dec-2016

 ------------------
 #p CCSD(T)/cc-pVTZ
 ------------------

 ------------
 H2O_H2O_4997
 ------------
 Symbolic Z-matrix:
 Charge =  0 Multiplicity = 1

                         Standard orientation:
 ---------------------------------------------------------------------
 Center     Atomic      Atomic             Coordinates (Angstroms)
 Number     Number       Type             X           Y           Z
 ---------------------------------------------------------------------
      1          8           0        0.056695   -3.395635    0.000000
      2          1           0       -0.743683   -3.965635    0.000000
      3          1           0        0.855457   -3.967898    0.000000
      4          8           0        0.056695    3.494792    0.000000
      5          1           0       -0.403959    4.362723    0.000000
      6          1           0       -0.614932    2.777558    0.000000
 ---------------------------------------------------------------------

 SCF Done:  E(RHF) =  -152.107565927     A.U. after   10 cycles
 E2 =    -0.5258593800D+00 EUMP2 =    -0.15263342530739D+03
 CCSD(T)
 CCSD(T)= -0.15266064244D+03

 The electronic state is 1-A'.
 Alpha  occ. eigenvalues --  -20.55700 -20.55226  -1.33000  -1.32525  -0.70406
 Alpha  occ. eigenvalues --   -0.69926  -0.56454  -0.55976  -0.50113  -0.49639
 Alpha virt. eigenvalues --    0.13989   0.14464   0.20072   0.20573   0.54154
 Alpha virt. eigenvalues --    0.54644   0.57087   0.57561   0.67722   0.68213
 Alpha virt. eigenvalues --    0.78767   0.79234   0.80195   0.80695   0.82119

 Mulliken charges:
               1
     1  O   -0.509815
     2  H    0.253984
     3  H    0.255832
     4  O   -0.509570
     5  H    0.252853
     6  H    0.256717
 Sum of Mulliken charges =  -0.00000

 Dipole moment (field-independent basis, Debye):
    X=             -1.9508    Y=             -1.7280    Z=              0.0000  Tot=              2.6061
 Quadrupole moment (field-independent basis, Debye-Ang):
   XX=             -9.8287   YY=              5.4461   ZZ=            -14.7124
   XY=             -6.7045   XZ=              0.0000   YZ=              0.0000

 031\MP4DQ=-152.642552\MP4SDQ=-152.6456055\CCSD=-152.6450192\CCSD(T)=-1
 Normal termination of Gaussian 16 at Sat Aug 27 10:33:06 2022.
