 Gaussian 16, Revision A.03,
 Gaussian 16:  ES64L-G16RevA.03 25-Dec-2016

 ------------------
 #p CCSD(T)/cc-pVTZ
 ------------------

 ------------
 H2O_H2O_3552
 ------------
 Symbolic Z-matrix:
 Charge =  0 Multiplicity = 1

                         Standard orientation:
 ---------------------------------------------------------------------
 Center     Atomic      Atomic             Coordinates (Angstroms)
 Number     Number       Type             X           Y           Z
 ---------------------------------------------------------------------
      1          8           0        0.007455   -2.691089    0.000000
      2          1           0       -0.792252   -3.262031    0.000000
      3          1           0        0.806890   -3.262412    0.000000
      4          8           0        0.007455    2.692063    0.000000
      5          1           0        0.725798    3.362503    0.000000
      6          1           0       -0.859714    3.154151    0.000000
 ---------------------------------------------------------------------

 SCF Done:  E(RHF) =  -152.106419423     A.U. after   10 cycles
 E2 =    -0.5259833759D+00 EUMP2 =    -0.15263240279898D+03
 CCSD(T)
 CCSD(T)= -0.15265964292D+03

 The electronic state is 1-A'.
 Alpha  occ. eigenvalues --  -20.55023 -20.55016  -1.32318  -1.32310  -0.69726
 Alpha  occ. eigenvalues --   -0.69718  -0.55720  -0.55708  -0.49422  -0.49414
 Alpha virt. eigenvalues --    0.14474   0.14676   0.20563   0.20635   0.54810
 Alpha virt. eigenvalues --    0.54890   0.57666   0.57700   0.68111   0.68999
 Alpha virt. eigenvalues --    0.79453   0.79465   0.80888   0.80934   0.82784

 Mulliken charges:
               1
     1  O   -0.503046
     2  H    0.251258
     3  H    0.251788
     4  O   -0.503033
     5  H    0.251163
     6  H    0.251870
 Sum of Mulliken charges =  -0.00000

 Dipole moment (field-independent basis, Debye):
    X=             -0.2553    Y=             -0.0171    Z=              0.0000  Tot=              0.2559
 Quadrupole moment (field-independent basis, Debye-Ang):
   XX=             -7.8448   YY=              9.4255   ZZ=            -14.7101
   XY=             -0.4594   XZ=              0.0000   YZ=              0.0000

 892\MP4DQ=-152.6415256\MP4SDQ=-152.6445896\CCSD=-152.6439998\CCSD(T)=-
 Normal termination of Gaussian 16 at Sat Aug 27 01:25:40 2022.
