 Gaussian 16, Revision A.03,
 Gaussian 16:  ES64L-G16RevA.03 25-Dec-2016

 ------------------
 #p CCSD(T)/cc-pVTZ
 ------------------

 ------------
 H2O_H2O_2323
 ------------
 Symbolic Z-matrix:
 Charge =  0 Multiplicity = 1

                         Standard orientation:
 ---------------------------------------------------------------------
 Center     Atomic      Atomic             Coordinates (Angstroms)
 Number     Number       Type             X           Y           Z
 ---------------------------------------------------------------------
      1          8           0        0.057120   -1.968994    0.000000
      2          1           0       -0.743834   -2.538185    0.000000
      3          1           0        0.855303   -2.542064    0.000000
      4          8           0        0.057120    2.075473    0.000000
      5          1           0       -0.458467    2.911939    0.000000
      6          1           0       -0.566927    1.316479    0.000000
 ---------------------------------------------------------------------

 SCF Done:  E(RHF) =  -152.108693740     A.U. after   10 cycles
 E2 =    -0.5261436251D+00 EUMP2 =    -0.15263483736470D+03
 CCSD(T)
 CCSD(T)= -0.15266199554D+03

 The electronic state is 1-A'.
 Alpha  occ. eigenvalues --  -20.56080 -20.54329  -1.33353  -1.31631  -0.70759
 Alpha  occ. eigenvalues --   -0.69001  -0.56833  -0.55099  -0.50475  -0.48758
 Alpha virt. eigenvalues --    0.12965   0.16027   0.19810   0.22842   0.53849
 Alpha virt. eigenvalues --    0.54975   0.56832   0.58561   0.66489   0.73055
 Alpha virt. eigenvalues --    0.78327   0.79299   0.80142   0.80951   0.82523

 Mulliken charges:
               1
     1  O   -0.506296
     2  H    0.250957
     3  H    0.258681
     4  O   -0.513368
     5  H    0.246929
     6  H    0.263097
 Sum of Mulliken charges =  -0.00000

 Dipole moment (field-independent basis, Debye):
    X=             -1.9328    Y=             -1.9531    Z=              0.0000  Tot=              2.7477
 Quadrupole moment (field-independent basis, Debye-Ang):
   XX=             -9.8518   YY=             -1.4945   ZZ=            -14.7174
   XY=             -4.1239   XZ=              0.0000   YZ=              0.0000

 Normal termination of Gaussian 16 at Sat Aug 27 09:52:09 2022.
