 Gaussian 16, Revision A.03,
 Gaussian 16:  ES64L-G16RevA.03 25-Dec-2016

 ------------------
 #p CCSD(T)/cc-pVTZ
 ------------------

 ------------
 H2O_H2O_1561
 ------------
 Symbolic Z-matrix:
 Charge =  0 Multiplicity = 1

                         Standard orientation:
 ---------------------------------------------------------------------
 Center     Atomic      Atomic             Coordinates (Angstroms)
 Number     Number       Type             X           Y           Z
 ---------------------------------------------------------------------
      1          8           0        0.037686   -1.612630    0.000000
      2          1           0       -0.763022   -2.182168    0.000000
      3          1           0        0.836117   -2.185354    0.000000
      4          8           0        0.037686    1.640826    0.000000
      5          1           0        0.264167    2.596971    0.000000
      6          1           0       -0.940231    1.544981    0.000000
 ---------------------------------------------------------------------

 SCF Done:  E(RHF) =  -152.104501982     A.U. after   10 cycles
 E2 =    -0.5269326348D+00 EUMP2 =    -0.15263143461703D+03
 CCSD(T)
 CCSD(T)= -0.15265866493D+03

 The electronic state is 1-A'.
 Alpha  occ. eigenvalues --  -20.54660 -20.54015  -1.31948  -1.31274  -0.69374
 Alpha  occ. eigenvalues --   -0.68676  -0.55613  -0.54160  -0.49066  -0.48356
 Alpha virt. eigenvalues --    0.13953   0.16470   0.20349   0.22085   0.53203
 Alpha virt. eigenvalues --    0.56448   0.57919   0.58686   0.64418   0.76946
 Alpha virt. eigenvalues --    0.78153   0.78725   0.79177   0.81799   0.85522

 Mulliken charges:
               1
     1  O   -0.484368
     2  H    0.238026
     3  H    0.247827
     4  O   -0.484232
     5  H    0.234887
     6  H    0.247860
 Sum of Mulliken charges =  -0.00000

 Dipole moment (field-independent basis, Debye):
    X=             -1.2451    Y=             -0.5299    Z=              0.0000  Tot=              1.3531
 Quadrupole moment (field-independent basis, Debye-Ang):
   XX=             -8.7430   YY=             -0.0107   ZZ=            -14.7122
   XY=             -1.2999   XZ=              0.0000   YZ=              0.0000

 Normal termination of Gaussian 16 at Sat Aug 27 05:28:47 2022.
