 Gaussian 16, Revision A.03,
 Gaussian 16:  ES64L-G16RevA.03 25-Dec-2016

 ------------------
 #p CCSD(T)/cc-pVTZ
 ------------------

 ------------
 H2O_H2O_3761
 ------------
 Symbolic Z-matrix:
 Charge =  0 Multiplicity = 1

                         Standard orientation:
 ---------------------------------------------------------------------
 Center     Atomic      Atomic             Coordinates (Angstroms)
 Number     Number       Type             X           Y           Z
 ---------------------------------------------------------------------
      1          8           0        0.037674   -2.782637    0.000000
      2          1           0       -0.762559   -3.352842    0.000000
      3          1           0        0.836582   -3.354696    0.000000
      4          8           0        0.037674    2.810896    0.000000
      5          1           0        0.263358    3.767229    0.000000
      6          1           0       -0.940163    2.714236    0.000000
 ---------------------------------------------------------------------

 SCF Done:  E(RHF) =  -152.106837430     A.U. after   10 cycles
 E2 =    -0.5259432976D+00 EUMP2 =    -0.15263278072808D+03
 CCSD(T)
 CCSD(T)= -0.15266001214D+03

 The electronic state is 1-A'.
 Alpha  occ. eigenvalues --  -20.55256 -20.55046  -1.32552  -1.32340  -0.69960
 Alpha  occ. eigenvalues --   -0.69743  -0.55972  -0.55761  -0.49659  -0.49449
 Alpha virt. eigenvalues --    0.14317   0.14634   0.20404   0.20655   0.54599
 Alpha virt. eigenvalues --    0.54842   0.57475   0.57690   0.68061   0.68685
 Alpha virt. eigenvalues --    0.79220   0.79427   0.80660   0.80889   0.82609

 Mulliken charges:
               1
     1  O   -0.505530
     2  H    0.251558
     3  H    0.253974
     4  O   -0.505298
     5  H    0.250830
     6  H    0.254466
 Sum of Mulliken charges =  -0.00000

 Dipole moment (field-independent basis, Debye):
    X=             -1.2916    Y=             -0.4957    Z=              0.0000  Tot=              1.3835
 Quadrupole moment (field-independent basis, Debye-Ang):
   XX=             -8.6981   YY=              8.4210   ZZ=            -14.7109
   XY=             -2.7796   XZ=              0.0000   YZ=              0.0000

 Normal termination of Gaussian 16 at Sat Aug 27 03:06:13 2022.
