 Gaussian 16, Revision A.03,
 Gaussian 16:  ES64L-G16RevA.03 25-Dec-2016

 ------------------
 #p CCSD(T)/cc-pVTZ
 ------------------

 ------------
 H2O_H2O_1350
 ------------
 Symbolic Z-matrix:
 Charge =  0 Multiplicity = 1

                         Standard orientation:
 ---------------------------------------------------------------------
 Center     Atomic      Atomic             Coordinates (Angstroms)
 Number     Number       Type             X           Y           Z
 ---------------------------------------------------------------------
      1          8           0        0.000000   -0.000000    1.521578
      2          1           0        0.000000    0.799571    2.092710
      3          1           0       -0.000000   -0.799571    2.092710
      4          8           0        0.000000   -0.000000   -1.521578
      5          1           0       -0.000000   -0.799571   -2.092710
      6          1           0        0.000000    0.799571   -2.092710
 ---------------------------------------------------------------------

 SCF Done:  E(RHF) =  -152.101542481     A.U. after   10 cycles
 E2 =    -0.5273153478D+00 EUMP2 =    -0.15262885782884D+03
 CCSD(T)
 CCSD(T)= -0.15265615421D+03

 The electronic state is 1-AG.
 Alpha  occ. eigenvalues --  -20.53866 -20.53866  -1.31273  -1.31069  -0.68684
 Alpha  occ. eigenvalues --   -0.68530  -0.55580  -0.53054  -0.48468  -0.48030
 Alpha virt. eigenvalues --    0.14392   0.16669   0.20573   0.21808   0.51752
 Alpha virt. eigenvalues --    0.58288   0.58650   0.59879   0.65388   0.76109
 Alpha virt. eigenvalues --    0.77884   0.77976   0.79332   0.82605   0.86116

 Mulliken charges:
               1
     1  O   -0.472994
     2  H    0.236497
     3  H    0.236497
     4  O   -0.472994
     5  H    0.236497
     6  H    0.236497
 Sum of Mulliken charges =  -0.00000

 Dipole moment (field-independent basis, Debye):
    X=             -0.0000    Y=              0.0000    Z=             -0.0000  Tot=              0.0000
 Quadrupole moment (field-independent basis, Debye-Ang):
   XX=            -14.7100   YY=             -7.8950   ZZ=             -0.2444
   XY=              0.0000   XZ=              0.0000   YZ=             -0.0000

 2\MP4DQ=-152.6377793\MP4SDQ=-152.6409259\CCSD=-152.6403045\CCSD(T)=-15
 Normal termination of Gaussian 16 at Sat Aug 27 04:09:20 2022.
