 Gaussian 16, Revision A.03,
 Gaussian 16:  ES64L-G16RevA.03 25-Dec-2016

 ------------------
 #p CCSD(T)/cc-pVTZ
 ------------------

 ------------
 H2O_H2O_4592
 ------------
 Symbolic Z-matrix:
 Charge =  0 Multiplicity = 1

                         Standard orientation:
 ---------------------------------------------------------------------
 Center     Atomic      Atomic             Coordinates (Angstroms)
 Number     Number       Type             X           Y           Z
 ---------------------------------------------------------------------
      1          8           0        0.051267   -3.202229    0.000000
      2          1           0       -0.749082   -3.772270    0.000000
      3          1           0        0.850058   -3.774450    0.000000
      4          8           0        0.051267    3.265794    0.000000
      5          1           0       -0.106002    4.235729    0.000000
      6          1           0       -0.815240    2.802466    0.000000
 ---------------------------------------------------------------------

 SCF Done:  E(RHF) =  -152.107325795     A.U. after   10 cycles
 E2 =    -0.5258854304D+00 EUMP2 =    -0.15263321122556D+03
 CCSD(T)
 CCSD(T)= -0.15266043314D+03

 The electronic state is 1-A'.
 Alpha  occ. eigenvalues --  -20.55533 -20.55182  -1.32832  -1.32480  -0.70238
 Alpha  occ. eigenvalues --   -0.69880  -0.56275  -0.55922  -0.49943  -0.49592
 Alpha virt. eigenvalues --    0.14132   0.14490   0.20206   0.20579   0.54324
 Alpha virt. eigenvalues --    0.54694   0.57236   0.57588   0.67913   0.68287
 Alpha virt. eigenvalues --    0.78937   0.79283   0.80370   0.80744   0.82296

 Mulliken charges:
               1
     1  O   -0.508401
     2  H    0.253139
     3  H    0.255262
     4  O   -0.508187
     5  H    0.252201
     6  H    0.255986
 Sum of Mulliken charges =  -0.00000

 Dipole moment (field-independent basis, Debye):
    X=             -1.7626    Y=             -1.1096    Z=              0.0000  Tot=              2.0828
 Quadrupole moment (field-independent basis, Debye-Ang):
   XX=             -9.4578   YY=              8.2067   ZZ=            -14.7118
   XY=             -5.1168   XZ=              0.0000   YZ=              0.0000

 Normal termination of Gaussian 16 at Sat Aug 27 08:13:34 2022.
