 Gaussian 16, Revision A.03,
 Gaussian 16:  ES64L-G16RevA.03 25-Dec-2016

 ------------------
 #p CCSD(T)/cc-pVTZ
 ------------------

 ------------
 H2O_H2O_1948
 ------------
 Symbolic Z-matrix:
 Charge =  0 Multiplicity = 1

                         Standard orientation:
 ---------------------------------------------------------------------
 Center     Atomic      Atomic             Coordinates (Angstroms)
 Number     Number       Type             X           Y           Z
 ---------------------------------------------------------------------
      1          8           0        0.057134   -1.769571    0.000000
      2          1           0       -0.743971   -2.338549    0.000000
      3          1           0        0.855165   -2.342853    0.000000
      4          8           0        0.057134    1.876020    0.000000
      5          1           0       -0.458231    2.712623    0.000000
      6          1           0       -0.567114    1.117191    0.000000
 ---------------------------------------------------------------------

 SCF Done:  E(RHF) =  -152.109182238     A.U. after   10 cycles
 E2 =    -0.5264044145D+00 EUMP2 =    -0.15263558665241D+03
 CCSD(T)
 CCSD(T)= -0.15266271839D+03

 The electronic state is 1-A'.
 Alpha  occ. eigenvalues --  -20.56245 -20.53999  -1.33510  -1.31303  -0.70915
 Alpha  occ. eigenvalues --   -0.68673  -0.56995  -0.54780  -0.50634  -0.48436
 Alpha virt. eigenvalues --    0.12949   0.16482   0.19721   0.23978   0.53309
 Alpha virt. eigenvalues --    0.55575   0.56611   0.58301   0.66691   0.74335
 Alpha virt. eigenvalues --    0.77717   0.78673   0.79338   0.80652   0.84289

 Mulliken charges:
               1
     1  O   -0.501167
     2  H    0.248867
     3  H    0.258589
     4  O   -0.514673
     5  H    0.244194
     6  H    0.264190
 Sum of Mulliken charges =   0.00000

 Dipole moment (field-independent basis, Debye):
    X=             -1.9165    Y=             -1.9980    Z=              0.0000  Tot=              2.7686
 Quadrupole moment (field-independent basis, Debye-Ang):
   XX=             -9.8516   YY=             -2.3681   ZZ=            -14.7200
   XY=             -3.7444   XZ=              0.0000   YZ=              0.0000

 Normal termination of Gaussian 16 at Sat Aug 27 07:43:11 2022.
