 Gaussian 16, Revision A.03,
 Gaussian 16:  ES64L-G16RevA.03 25-Dec-2016

 ------------------
 #p CCSD(T)/cc-pVTZ
 ------------------

 -----------
 H2O_H2O_712
 -----------
 Symbolic Z-matrix:
 Charge =  0 Multiplicity = 1

                         Standard orientation:
 ---------------------------------------------------------------------
 Center     Atomic      Atomic             Coordinates (Angstroms)
 Number     Number       Type             X           Y           Z
 ---------------------------------------------------------------------
      1          8           0        0.040434   -1.157841    0.000000
      2          1           0       -0.760824   -1.726604    0.000000
      3          1           0        0.838311   -1.731337    0.000000
      4          8           0        0.040434    1.191058    0.000000
      5          1           0        0.204834    2.159809    0.000000
      6          1           0       -0.929273    1.032397    0.000000
 ---------------------------------------------------------------------

 SCF Done:  E(RHF) =  -152.090190175     A.U. after   11 cycles
 E2 =    -0.5303077279D+00 EUMP2 =    -0.15262049790319D+03
 CCSD(T)
 CCSD(T)= -0.15264767674D+03

 The electronic state is 1-A'.
 Alpha  occ. eigenvalues --  -20.53866 -20.52731  -1.31898  -1.29869  -0.69199
 Alpha  occ. eigenvalues --   -0.67754  -0.57094  -0.50245  -0.49119  -0.46689
 Alpha virt. eigenvalues --    0.14143   0.17588   0.20248   0.23261   0.53089
 Alpha virt. eigenvalues --    0.57962   0.58187   0.61623   0.70814   0.75831
 Alpha virt. eigenvalues --    0.77994   0.80392   0.83502   0.85722   0.87522

 Mulliken charges:
               1
     1  O   -0.464222
     2  H    0.223471
     3  H    0.241599
     4  O   -0.446446
     5  H    0.203850
     6  H    0.241748
 Sum of Mulliken charges =  -0.00000

 Dipole moment (field-independent basis, Debye):
    X=             -1.2399    Y=             -0.6548    Z=              0.0000  Tot=              1.4022
 Quadrupole moment (field-independent basis, Debye-Ang):
   XX=             -8.9710   YY=             -3.9018   ZZ=            -14.7270
   XY=             -0.8762   XZ=              0.0000   YZ=              0.0000

 Normal termination of Gaussian 16 at Fri Aug 26 19:20:14 2022.
