 Gaussian 16, Revision A.03,
 Gaussian 16:  ES64L-G16RevA.03 25-Dec-2016

 ------------------
 #p CCSD(T)/cc-pVTZ
 ------------------

 ------------
 H2O_H2O_2612
 ------------
 Symbolic Z-matrix:
 Charge =  0 Multiplicity = 1

                         Standard orientation:
 ---------------------------------------------------------------------
 Center     Atomic      Atomic             Coordinates (Angstroms)
 Number     Number       Type             X           Y           Z
 ---------------------------------------------------------------------
      1          8           0        0.040412   -2.168272    0.000000
      2          1           0       -0.760067   -2.738132    0.000000
      3          1           0        0.839073   -2.740676    0.000000
      4          8           0        0.040412    2.201600    0.000000
      5          1           0        0.203485    3.170576    0.000000
      6          1           0       -0.929078    2.041611    0.000000
 ---------------------------------------------------------------------

 SCF Done:  E(RHF) =  -152.106355274     A.U. after   10 cycles
 E2 =    -0.5260980531D+00 EUMP2 =    -0.15263245332719D+03
 CCSD(T)
 CCSD(T)= -0.15265968428D+03

 The electronic state is 1-A'.
 Alpha  occ. eigenvalues --  -20.55097 -20.54675  -1.32387  -1.31961  -0.69798
 Alpha  occ. eigenvalues --   -0.69358  -0.55782  -0.55348  -0.49491  -0.49069
 Alpha virt. eigenvalues --    0.13920   0.15394   0.20368   0.21164   0.54240
 Alpha virt. eigenvalues --    0.55201   0.57602   0.57994   0.65528   0.72724
 Alpha virt. eigenvalues --    0.79342   0.79842   0.80577   0.81480   0.82797

 Mulliken charges:
               1
     1  O   -0.501970
     2  H    0.248544
     3  H    0.253654
     4  O   -0.501637
     5  H    0.247061
     6  H    0.254349
 Sum of Mulliken charges =  -0.00000

 Dipole moment (field-independent basis, Debye):
    X=             -1.3732    Y=             -0.5969    Z=              0.0000  Tot=              1.4973
 Quadrupole moment (field-independent basis, Debye-Ang):
   XX=             -8.8397   YY=              3.8242   ZZ=            -14.7110
   XY=             -2.2109   XZ=              0.0000   YZ=              0.0000

 Normal termination of Gaussian 16 at Fri Aug 26 14:20:10 2022.
