 Gaussian 16, Revision A.03,
 Gaussian 16:  ES64L-G16RevA.03 25-Dec-2016

 ------------------
 #p CCSD(T)/cc-pVTZ
 ------------------

 ------------
 H2O_H2O_2644
 ------------
 Symbolic Z-matrix:
 Charge =  0 Multiplicity = 1

                         Standard orientation:
 ---------------------------------------------------------------------
 Center     Atomic      Atomic             Coordinates (Angstroms)
 Number     Number       Type             X           Y           Z
 ---------------------------------------------------------------------
      1          8           0        0.054164   -2.157698    0.000000
      2          1           0       -0.746616   -2.727134    0.000000
      3          1           0        0.852523   -2.730523    0.000000
      4          8           0        0.054164    2.234978    0.000000
      5          1           0       -0.227650    3.176300    0.000000
      6          1           0       -0.744886    1.663116    0.000000
 ---------------------------------------------------------------------

 SCF Done:  E(RHF) =  -152.107515710     A.U. after   10 cycles
 E2 =    -0.5260426127D+00 EUMP2 =    -0.15263355832252D+03
 CCSD(T)
 CCSD(T)= -0.15266075844D+03

 The electronic state is 1-A'.
 Alpha  occ. eigenvalues --  -20.55622 -20.54608  -1.32909  -1.31900  -0.70318
 Alpha  occ. eigenvalues --   -0.69281  -0.56349  -0.55340  -0.50022  -0.49017
 Alpha virt. eigenvalues --    0.13390   0.15555   0.20055   0.21632   0.54050
 Alpha virt. eigenvalues --    0.54763   0.57199   0.58118   0.66202   0.72427
 Alpha virt. eigenvalues --    0.78852   0.79776   0.79855   0.81482   0.82579

 Mulliken charges:
               1
     1  O   -0.506719
     2  H    0.250566
     3  H    0.257096
     4  O   -0.508027
     5  H    0.247730
     6  H    0.259354
 Sum of Mulliken charges =  -0.00000

 Dipole moment (field-independent basis, Debye):
    X=             -1.8414    Y=             -1.3912    Z=              0.0000  Tot=              2.3079
 Quadrupole moment (field-independent basis, Debye-Ang):
   XX=             -9.6482   YY=              1.3127   ZZ=            -14.7137
   XY=             -3.7318   XZ=              0.0000   YZ=              0.0000

 Normal termination of Gaussian 16 at Fri Aug 26 14:40:46 2022.
