 Gaussian 16, Revision A.03,
 Gaussian 16:  ES64L-G16RevA.03 25-Dec-2016

 ------------------
 #p CCSD(T)/cc-pVTZ
 ------------------

 ------------
 H2O_H2O_4698
 ------------
 Symbolic Z-matrix:
 Charge =  0 Multiplicity = 1

                         Standard orientation:
 ---------------------------------------------------------------------
 Center     Atomic      Atomic             Coordinates (Angstroms)
 Number     Number       Type             X           Y           Z
 ---------------------------------------------------------------------
      1          8           0        0.057071   -3.232050    0.000000
      2          1           0       -0.743352   -3.801987    0.000000
      3          1           0        0.855788   -3.804375    0.000000
      4          8           0        0.057071    3.338635    0.000000
      5          1           0       -0.459297    4.174620    0.000000
      6          1           0       -0.566268    2.579059    0.000000
 ---------------------------------------------------------------------

 SCF Done:  E(RHF) =  -152.107632760     A.U. after   10 cycles
 E2 =    -0.5258564884D+00 EUMP2 =    -0.15263348924803D+03
 CCSD(T)
 CCSD(T)= -0.15266070478D+03

 The electronic state is 1-A'.
 Alpha  occ. eigenvalues --  -20.55740 -20.55177  -1.33040  -1.32477  -0.70446
 Alpha  occ. eigenvalues --   -0.69877  -0.56498  -0.55930  -0.50154  -0.49592
 Alpha virt. eigenvalues --    0.13948   0.14521   0.20040   0.20640   0.54113
 Alpha virt. eigenvalues --    0.54693   0.57051   0.57613   0.67662   0.68267
 Alpha virt. eigenvalues --    0.78726   0.79280   0.80153   0.80742   0.82085

 Mulliken charges:
               1
     1  O   -0.510219
     2  H    0.254058
     3  H    0.256162
     4  O   -0.509898
     5  H    0.252666
     6  H    0.257232
 Sum of Mulliken charges =  -0.00000

 Dipole moment (field-independent basis, Debye):
    X=             -1.9627    Y=             -1.8603    Z=              0.0000  Tot=              2.7042
 Quadrupole moment (field-independent basis, Debye-Ang):
   XX=             -9.8553   YY=              3.8853   ZZ=            -14.7126
   XY=             -6.5698   XZ=              0.0000   YZ=              0.0000

 Normal termination of Gaussian 16 at Sat Aug 27 08:49:02 2022.
