 Gaussian 16, Revision A.03,
 Gaussian 16:  ES64L-G16RevA.03 25-Dec-2016

 ------------------
 #p CCSD(T)/cc-pVTZ
 ------------------

 ------------
 H2O_H2O_1702
 ------------
 Symbolic Z-matrix:
 Charge =  0 Multiplicity = 1

                         Standard orientation:
 ---------------------------------------------------------------------
 Center     Atomic      Atomic             Coordinates (Angstroms)
 Number     Number       Type             X           Y           Z
 ---------------------------------------------------------------------
      1          8           0        0.007455   -1.707193    0.000000
      2          1           0       -0.792331   -2.278025    0.000000
      3          1           0        0.806811   -2.278626    0.000000
      4          8           0        0.007455    1.708165    0.000000
      5          1           0        0.725890    2.378505    0.000000
      6          1           0       -0.859650    2.170371    0.000000
 ---------------------------------------------------------------------

 SCF Done:  E(RHF) =  -152.103693198     A.U. after   10 cycles
 E2 =    -0.5267593179D+00 EUMP2 =    -0.15263045251586D+03
 CCSD(T)
 CCSD(T)= -0.15265771472D+03

 The electronic state is 1-A'.
 Alpha  occ. eigenvalues --  -20.54229 -20.54209  -1.31538  -1.31461  -0.68959
 Alpha  occ. eigenvalues --   -0.68893  -0.55342  -0.54118  -0.48686  -0.48493
 Alpha virt. eigenvalues --    0.14263   0.16208   0.20596   0.21501   0.53057
 Alpha virt. eigenvalues --    0.57921   0.58067   0.58470   0.61557   0.75996
 Alpha virt. eigenvalues --    0.78828   0.79115   0.80071   0.81494   0.84451

 Mulliken charges:
               1
     1  O   -0.482842
     2  H    0.240563
     3  H    0.242318
     4  O   -0.482815
     5  H    0.240451
     6  H    0.242324
 Sum of Mulliken charges =  -0.00000

 Dipole moment (field-independent basis, Debye):
    X=             -0.2483    Y=             -0.0181    Z=              0.0000  Tot=              0.2490
 Quadrupole moment (field-independent basis, Debye-Ang):
   XX=             -7.8978   YY=              1.3743   ZZ=            -14.7088
   XY=             -0.2141   XZ=              0.0000   YZ=              0.0000

 Normal termination of Gaussian 16 at Sat Aug 27 06:18:15 2022.
