 Gaussian 16, Revision A.03,
 Gaussian 16:  ES64L-G16RevA.03 25-Dec-2016

 ------------------
 #p CCSD(T)/cc-pVTZ
 ------------------

 -----------
 H2O_H2O_102
 -----------
 Symbolic Z-matrix:
 Charge =  0 Multiplicity = 1

                         Standard orientation:
 ---------------------------------------------------------------------
 Center     Atomic      Atomic             Coordinates (Angstroms)
 Number     Number       Type             X           Y           Z
 ---------------------------------------------------------------------
      1          8           0        0.007455   -0.856258    0.000000
      2          1           0       -0.792543   -1.426791    0.000000
      3          1           0        0.806598   -1.427988    0.000000
      4          8           0        0.007455    0.857224    0.000000
      5          1           0        0.726140    1.527297    0.000000
      6          1           0       -0.859478    1.319754    0.000000
 ---------------------------------------------------------------------

 SCF Done:  E(RHF) =  -151.963287201     A.U. after   11 cycles
 E2 =    -0.5462693136D+00 EUMP2 =    -0.15250955651504D+03
 CCSD(T)
 CCSD(T)= -0.15253482481D+03

 The electronic state is 1-A'.
 Alpha  occ. eigenvalues --  -20.51214 -20.51187  -1.35001  -1.27182  -0.70054
 Alpha  occ. eigenvalues --   -0.66776  -0.65153  -0.51552  -0.43414  -0.35603
 Alpha virt. eigenvalues --    0.14562   0.19429   0.20000   0.23043   0.50579
 Alpha virt. eigenvalues --    0.58907   0.59223   0.66966   0.68087   0.79283
 Alpha virt. eigenvalues --    0.80639   0.84028   0.84208   0.86157   0.87861

 Mulliken charges:
               1
     1  O   -0.369609
     2  H    0.180932
     3  H    0.188712
     4  O   -0.366165
     5  H    0.168139
     6  H    0.197991
 Sum of Mulliken charges =  -0.00000

 Dipole moment (field-independent basis, Debye):
    X=             -0.2133    Y=             -0.0257    Z=              0.0000  Tot=              0.2148
 Quadrupole moment (field-independent basis, Debye-Ang):
   XX=             -8.4449   YY=             -8.2058   ZZ=            -14.7654
   XY=             -0.0938   XZ=              0.0000   YZ=              0.0000

 5066\MP4DQ=-152.5137375\MP4SDQ=-152.5178832\CCSD=-152.5167117\CCSD(T)=
 Normal termination of Gaussian 16 at Fri Aug 26 12:46:56 2022.
