 Gaussian 16, Revision A.03,
 Gaussian 16:  ES64L-G16RevA.03 25-Dec-2016

 ------------------
 #p CCSD(T)/cc-pVTZ
 ------------------

 -----------
 H2O_H2O_301
 -----------
 Symbolic Z-matrix:
 Charge =  0 Multiplicity = 1

                         Standard orientation:
 ---------------------------------------------------------------------
 Center     Atomic      Atomic             Coordinates (Angstroms)
 Number     Number       Type             X           Y           Z
 ---------------------------------------------------------------------
      1          8           0        0.003735   -0.963018    0.000000
      2          1           0       -0.796026   -1.533884    0.000000
      3          1           0        0.803116   -1.534417    0.000000
      4          8           0        0.003735    0.963261    0.000000
      5          1           0        0.764449    1.585210    0.000000
      6          1           0       -0.831305    1.481153    0.000000
 ---------------------------------------------------------------------

 SCF Done:  E(RHF) =  -152.033808394     A.U. after   11 cycles
 E2 =    -0.5373368682D+00 EUMP2 =    -0.15257114526201D+03
 CCSD(T)
 CCSD(T)= -0.15259772005D+03

 The electronic state is 1-A'.
 Alpha  occ. eigenvalues --  -20.51533 -20.51525  -1.32393  -1.28133  -0.68683
 Alpha  occ. eigenvalues --   -0.66155  -0.62291  -0.49523  -0.44492  -0.41732
 Alpha virt. eigenvalues --    0.14678   0.18683   0.20400   0.22877   0.50275
 Alpha virt. eigenvalues --    0.59202   0.59286   0.66771   0.69220   0.78492
 Alpha virt. eigenvalues --    0.79713   0.83331   0.84500   0.86629   0.87403

 Mulliken charges:
               1
     1  O   -0.417292
     2  H    0.207350
     3  H    0.209878
     4  O   -0.416492
     5  H    0.203757
     6  H    0.212799
 Sum of Mulliken charges =  -0.00000

 Dipole moment (field-independent basis, Debye):
    X=             -0.1082    Y=             -0.0054    Z=              0.0000  Tot=              0.1083
 Quadrupole moment (field-independent basis, Debye-Ang):
   XX=             -8.2134   YY=             -6.3090   ZZ=            -14.7560
   XY=             -0.0341   XZ=              0.0000   YZ=              0.0000

 Normal termination of Gaussian 16 at Fri Aug 26 15:03:36 2022.
