 Gaussian 16, Revision A.03,
 Gaussian 16:  ES64L-G16RevA.03 25-Dec-2016

 ------------------
 #p CCSD(T)/cc-pVTZ
 ------------------

 -----------
 H2O_H2O_792
 -----------
 Symbolic Z-matrix:
 Charge =  0 Multiplicity = 1

                         Standard orientation:
 ---------------------------------------------------------------------
 Center     Atomic      Atomic             Coordinates (Angstroms)
 Number     Number       Type             X           Y           Z
 ---------------------------------------------------------------------
      1          8           0        0.051339   -1.181372    0.000000
      2          1           0       -0.750303   -1.749593    0.000000
      3          1           0        0.848828   -1.755407    0.000000
      4          8           0        0.051339    1.244704    0.000000
      5          1           0       -0.103726    2.214993    0.000000
      6          1           0       -0.816218    0.783347    0.000000
 ---------------------------------------------------------------------

 SCF Done:  E(RHF) =  -152.096133731     A.U. after   11 cycles
 E2 =    -0.5299860900D+00 EUMP2 =    -0.15262611982068D+03
 CCSD(T)
 CCSD(T)= -0.15265322847D+03

 The electronic state is 1-A'.
 Alpha  occ. eigenvalues --  -20.55061 -20.52596  -1.32896  -1.29840  -0.70277
 Alpha  occ. eigenvalues --   -0.68010  -0.56165  -0.52188  -0.50000  -0.46822
 Alpha virt. eigenvalues --    0.13663   0.17746   0.19912   0.24159   0.52579
 Alpha virt. eigenvalues --    0.57244   0.59232   0.60388   0.71216   0.74743
 Alpha virt. eigenvalues --    0.77858   0.82446   0.83017   0.84792   0.85937

 Mulliken charges:
               1
     1  O   -0.464626
     2  H    0.227613
     3  H    0.246553
     4  O   -0.470558
     5  H    0.210342
     6  H    0.250677
 Sum of Mulliken charges =  -0.00000

 Dipole moment (field-independent basis, Debye):
    X=             -1.5904    Y=             -1.2728    Z=              0.0000  Tot=              2.0370
 Quadrupole moment (field-independent basis, Debye-Ang):
   XX=             -9.5263   YY=             -4.1265   ZZ=            -14.7233
   XY=             -1.6484   XZ=              0.0000   YZ=              0.0000

 Normal termination of Gaussian 16 at Fri Aug 26 20:04:22 2022.
