 Gaussian 16, Revision A.03,
 Gaussian 16:  ES64L-G16RevA.03 25-Dec-2016

 ------------------
 #p CCSD(T)/cc-pVTZ
 ------------------

 ------------
 H2O_H2O_1511
 ------------
 Symbolic Z-matrix:
 Charge =  0 Multiplicity = 1

                         Standard orientation:
 ---------------------------------------------------------------------
 Center     Atomic      Atomic             Coordinates (Angstroms)
 Number     Number       Type             X           Y           Z
 ---------------------------------------------------------------------
      1          8           0        0.037686   -1.586040    0.000000
      2          1           0       -0.763040   -2.155551    0.000000
      3          1           0        0.836098   -2.158790    0.000000
      4          8           0        0.037686    1.614234    0.000000
      5          1           0        0.264199    2.570371    0.000000
      6          1           0       -0.940234    1.518420    0.000000
 ---------------------------------------------------------------------

 SCF Done:  E(RHF) =  -152.104292610     A.U. after   10 cycles
 E2 =    -0.5270135775D+00 EUMP2 =    -0.15263130618790D+03
 CCSD(T)
 CCSD(T)= -0.15265853877D+03

 The electronic state is 1-A'.
 Alpha  occ. eigenvalues --  -20.54629 -20.53967  -1.31922  -1.31224  -0.69348
 Alpha  occ. eigenvalues --   -0.68629  -0.55635  -0.54045  -0.49043  -0.48301
 Alpha virt. eigenvalues --    0.13970   0.16527   0.20346   0.22145   0.53211
 Alpha virt. eigenvalues --    0.56673   0.57938   0.58715   0.64757   0.76844
 Alpha virt. eigenvalues --    0.78004   0.78668   0.79133   0.81956   0.85542

 Mulliken charges:
               1
     1  O   -0.483274
     2  H    0.237322
     3  H    0.247480
     4  O   -0.482682
     5  H    0.233856
     6  H    0.247298
 Sum of Mulliken charges =   0.00000

 Dipole moment (field-independent basis, Debye):
    X=             -1.2420    Y=             -0.5311    Z=              0.0000  Tot=              1.3508
 Quadrupole moment (field-independent basis, Debye-Ang):
   XX=             -8.7466   YY=             -0.2160   ZZ=            -14.7125
   XY=             -1.2670   XZ=              0.0000   YZ=              0.0000

 Normal termination of Gaussian 16 at Sat Aug 27 05:11:53 2022.
