 Gaussian 16, Revision A.03,
 Gaussian 16:  ES64L-G16RevA.03 25-Dec-2016

 ------------------
 #p CCSD(T)/cc-pVTZ
 ------------------

 ----------
 H2O_H2O_13
 ----------
 Symbolic Z-matrix:
 Charge =  0 Multiplicity = 1

                         Standard orientation:
 ---------------------------------------------------------------------
 Center     Atomic      Atomic             Coordinates (Angstroms)
 Number     Number       Type             X           Y           Z
 ---------------------------------------------------------------------
      1          8           0        0.043029   -0.782675    0.000000
      2          1           0       -0.759166   -1.350115    0.000000
      3          1           0        0.839959   -1.357486    0.000000
      4          8           0        0.043029    0.821190    0.000000
      5          1           0        0.145329    1.798452    0.000000
      6          1           0       -0.914590    0.601026    0.000000
 ---------------------------------------------------------------------

 SCF Done:  E(RHF) =  -151.914193620     A.U. after   12 cycles
 E2 =    -0.5518582145D+00 EUMP2 =    -0.15246605183421D+03
 CCSD(T)
 CCSD(T)= -0.15249054477D+03

 The electronic state is 1-A'.
 Alpha  occ. eigenvalues --  -20.52987 -20.51525  -1.39297  -1.26463  -0.74996
 Alpha  occ. eigenvalues --   -0.70813  -0.59384  -0.54400  -0.43215  -0.35591
 Alpha virt. eigenvalues --    0.13849   0.19012   0.19891   0.23830   0.52738
 Alpha virt. eigenvalues --    0.56155   0.58529   0.66010   0.73518   0.77268
 Alpha virt. eigenvalues --    0.81063   0.81376   0.82045   0.83790   0.89292

 Mulliken charges:
               1
     1  O   -0.315855
     2  H    0.143801
     3  H    0.183268
     4  O   -0.324861
     5  H    0.080544
     6  H    0.233102
 Sum of Mulliken charges =  -0.00000

 Dipole moment (field-independent basis, Debye):
    X=             -1.1293    Y=             -0.9459    Z=              0.0000  Tot=              1.4732
 Quadrupole moment (field-independent basis, Debye-Ang):
   XX=             -9.3044   YY=             -9.3614   ZZ=            -14.6429
   XY=             -0.6326   XZ=              0.0000   YZ=              0.0000

 Normal termination of Gaussian 16 at Fri Aug 26 11:53:04 2022.
