 Gaussian 16, Revision A.03,
 Gaussian 16:  ES64L-G16RevA.03 25-Dec-2016

 ------------------
 #p CCSD(T)/cc-pVTZ
 ------------------

 ------------
 H2O_H2O_4879
 ------------
 Symbolic Z-matrix:
 Charge =  0 Multiplicity = 1

                         Standard orientation:
 ---------------------------------------------------------------------
 Center     Atomic      Atomic             Coordinates (Angstroms)
 Number     Number       Type             X           Y           Z
 ---------------------------------------------------------------------
      1          8           0        0.014783   -3.394194    0.000000
      2          1           0       -0.785002   -3.965026    0.000000
      3          1           0        0.814140   -3.965625    0.000000
      4          8           0        0.014783    3.398075    0.000000
      5          1           0        0.639574    4.156456    0.000000
      6          1           0       -0.905235    3.743146    0.000000
 ---------------------------------------------------------------------

 SCF Done:  E(RHF) =  -152.106968736     A.U. after   10 cycles
 E2 =    -0.5259126610D+00 EUMP2 =    -0.15263288139744D+03
 CCSD(T)
 CCSD(T)= -0.15266011118D+03

 The electronic state is 1-A'.
 Alpha  occ. eigenvalues --  -20.55268 -20.55249  -1.32565  -1.32545  -0.69971
 Alpha  occ. eigenvalues --   -0.69951  -0.55992  -0.55972  -0.49673  -0.49653
 Alpha virt. eigenvalues --    0.14372   0.14393   0.20425   0.20445   0.54597
 Alpha virt. eigenvalues --    0.54618   0.57475   0.57495   0.68230   0.68253
 Alpha virt. eigenvalues --    0.79207   0.79226   0.80647   0.80669   0.82573

 Mulliken charges:
               1
     1  O   -0.506272
     2  H    0.252863
     3  H    0.253409
     4  O   -0.506255
     5  H    0.252735
     6  H    0.253521
 Sum of Mulliken charges =  -0.00000

 Dipole moment (field-independent basis, Debye):
    X=             -0.5084    Y=             -0.0676    Z=              0.0000  Tot=              0.5129
 Quadrupole moment (field-independent basis, Debye-Ang):
   XX=             -7.9384   YY=             14.8037   ZZ=            -14.7109
   XY=             -1.2788   XZ=              0.0000   YZ=              0.0000

 Normal termination of Gaussian 16 at Sat Aug 27 09:51:09 2022.
