 Gaussian 16, Revision A.03,
 Gaussian 16:  ES64L-G16RevA.03 25-Dec-2016

 ------------------
 #p CCSD(T)/cc-pVTZ
 ------------------

 ----------
 H2O_H2O_81
 ----------
 Symbolic Z-matrix:
 Charge =  0 Multiplicity = 1

                         Standard orientation:
 ---------------------------------------------------------------------
 Center     Atomic      Atomic             Coordinates (Angstroms)
 Number     Number       Type             X           Y           Z
 ---------------------------------------------------------------------
      1          8           0        0.021866   -0.838816    0.000000
      2          1           0       -0.778978   -1.408162    0.000000
      3          1           0        0.820160   -1.411731    0.000000
      4          8           0        0.021866    0.847413    0.000000
      5          1           0        0.543870    1.679890    0.000000
      6          1           0       -0.934907    1.071223    0.000000
 ---------------------------------------------------------------------

 SCF Done:  E(RHF) =  -151.954990618     A.U. after   12 cycles
 E2 =    -0.5473804502D+00 EUMP2 =    -0.15250237106803D+03
 CCSD(T)
 CCSD(T)= -0.15252744953D+03

 The electronic state is 1-A'.
 Alpha  occ. eigenvalues --  -20.51577 -20.51328  -1.35807  -1.27059  -0.71075
 Alpha  occ. eigenvalues --   -0.68043  -0.63665  -0.52134  -0.43383  -0.35488
 Alpha virt. eigenvalues --    0.14394   0.19298   0.19914   0.23271   0.51951
 Alpha virt. eigenvalues --    0.57475   0.59008   0.65953   0.69699   0.78851
 Alpha virt. eigenvalues --    0.79974   0.83505   0.83676   0.85628   0.88392

 Mulliken charges:
               1
     1  O   -0.368927
     2  H    0.175096
     3  H    0.194315
     4  O   -0.350345
     5  H    0.134108
     6  H    0.215752
 Sum of Mulliken charges =  -0.00000

 Dipole moment (field-independent basis, Debye):
    X=             -0.6158    Y=             -0.2240    Z=              0.0000  Tot=              0.6552
 Quadrupole moment (field-independent basis, Debye-Ang):
   XX=             -8.6425   YY=             -8.4657   ZZ=            -14.7434
   XY=             -0.2878   XZ=              0.0000   YZ=              0.0000

 Normal termination of Gaussian 16 at Fri Aug 26 12:34:50 2022.
