 Gaussian 16, Revision A.03,
 Gaussian 16:  ES64L-G16RevA.03 25-Dec-2016

 ------------------
 #p CCSD(T)/cc-pVTZ
 ------------------

 ------------
 H2O_H2O_3563
 ------------
 Symbolic Z-matrix:
 Charge =  0 Multiplicity = 1

                         Standard orientation:
 ---------------------------------------------------------------------
 Center     Atomic      Atomic             Coordinates (Angstroms)
 Number     Number       Type             X           Y           Z
 ---------------------------------------------------------------------
      1          8           0        0.042967   -2.670549    0.000000
      2          1           0       -0.757388   -3.240581    0.000000
      3          1           0        0.841752   -3.242779    0.000000
      4          8           0        0.042967    2.709342    0.000000
      5          1           0        0.142104    3.686931    0.000000
      6          1           0       -0.913935    2.486081    0.000000
 ---------------------------------------------------------------------

 SCF Done:  E(RHF) =  -152.106896965     A.U. after   10 cycles
 E2 =    -0.5259463469D+00 EUMP2 =    -0.15263284331182D+03
 CCSD(T)
 CCSD(T)= -0.15266007283D+03

 The electronic state is 1-A'.
 Alpha  occ. eigenvalues --  -20.55304 -20.54991  -1.32600  -1.32284  -0.70008
 Alpha  occ. eigenvalues --   -0.69684  -0.56024  -0.55708  -0.49708  -0.49394
 Alpha virt. eigenvalues --    0.14219   0.14737   0.20352   0.20741   0.54536
 Alpha virt. eigenvalues --    0.54903   0.57430   0.57745   0.67835   0.68934
 Alpha virt. eigenvalues --    0.79171   0.79480   0.80602   0.80934   0.82609

 Mulliken charges:
               1
     1  O   -0.505890
     2  H    0.251413
     3  H    0.254488
     4  O   -0.505554
     5  H    0.250376
     6  H    0.255168
 Sum of Mulliken charges =  -0.00000

 Dipole moment (field-independent basis, Debye):
    X=             -1.4718    Y=             -0.6822    Z=              0.0000  Tot=              1.6222
 Quadrupole moment (field-independent basis, Debye-Ang):
   XX=             -8.9664   YY=              6.9306   ZZ=            -14.7112
   XY=             -3.1569   XZ=              0.0000   YZ=              0.0000

 Normal termination of Gaussian 16 at Sat Aug 27 01:31:55 2022.
