 Gaussian 16, Revision A.03,
 Gaussian 16:  ES64L-G16RevA.03 25-Dec-2016

 ------------------
 #p CCSD(T)/cc-pVTZ
 ------------------

 ------------
 H2O_H2O_4327
 ------------
 Symbolic Z-matrix:
 Charge =  0 Multiplicity = 1

                         Standard orientation:
 ---------------------------------------------------------------------
 Center     Atomic      Atomic             Coordinates (Angstroms)
 Number     Number       Type             X           Y           Z
 ---------------------------------------------------------------------
      1          8           0        0.007455   -3.103262    0.000000
      2          1           0       -0.792234   -3.674229    0.000000
      3          1           0        0.806908   -3.674559    0.000000
      4          8           0        0.007455    3.104236    0.000000
      5          1           0        0.725776    3.774699    0.000000
      6          1           0       -0.859729    3.566296    0.000000
 ---------------------------------------------------------------------

 SCF Done:  E(RHF) =  -152.106785017     A.U. after   10 cycles
 E2 =    -0.5259345032D+00 EUMP2 =    -0.15263271951998D+03
 CCSD(T)
 CCSD(T)= -0.15265995285D+03

 The electronic state is 1-A'.
 Alpha  occ. eigenvalues --  -20.55176 -20.55170  -1.32472  -1.32466  -0.69879
 Alpha  occ. eigenvalues --   -0.69873  -0.55890  -0.55884  -0.49579  -0.49573
 Alpha virt. eigenvalues --    0.14435   0.14469   0.20487   0.20503   0.54688
 Alpha virt. eigenvalues --    0.54699   0.57552   0.57562   0.68312   0.68391
 Alpha virt. eigenvalues --    0.79300   0.79306   0.80745   0.80751   0.82674

 Mulliken charges:
               1
     1  O   -0.505190
     2  H    0.252417
     3  H    0.252773
     4  O   -0.505184
     5  H    0.252344
     6  H    0.252839
 Sum of Mulliken charges =  -0.00000

 Dipole moment (field-independent basis, Debye):
    X=             -0.2560    Y=             -0.0170    Z=              0.0000  Tot=              0.2566
 Quadrupole moment (field-independent basis, Debye-Ang):
   XX=             -7.8386   YY=             12.7231   ZZ=            -14.7106
   XY=             -0.5637   XZ=              0.0000   YZ=              0.0000

 Normal termination of Gaussian 16 at Sat Aug 27 06:41:30 2022.
