 Gaussian 16, Revision A.03,
 Gaussian 16:  ES64L-G16RevA.03 25-Dec-2016

 ------------------
 #p CCSD(T)/cc-pVTZ
 ------------------

 ------------
 H2O_H2O_1351
 ------------
 Symbolic Z-matrix:
 Charge =  0 Multiplicity = 1

                         Standard orientation:
 ---------------------------------------------------------------------
 Center     Atomic      Atomic             Coordinates (Angstroms)
 Number     Number       Type             X           Y           Z
 ---------------------------------------------------------------------
      1          8           0        0.003735   -1.521446    0.000000
      2          1           0       -0.795956   -2.092409    0.000000
      3          1           0        0.803186   -2.092747    0.000000
      4          8           0        0.003735    1.521689    0.000000
      5          1           0        0.764373    2.143732    0.000000
      6          1           0       -0.831368    2.039480    0.000000
 ---------------------------------------------------------------------

 SCF Done:  E(RHF) =  -152.101559353     A.U. after   10 cycles
 E2 =    -0.5273152590D+00 EUMP2 =    -0.15262887461182D+03
 CCSD(T)
 CCSD(T)= -0.15265617051D+03

 The electronic state is 1-A'.
 Alpha  occ. eigenvalues --  -20.53871 -20.53866  -1.31276  -1.31072  -0.68686
 Alpha  occ. eigenvalues --   -0.68532  -0.55582  -0.53060  -0.48470  -0.48033
 Alpha virt. eigenvalues --    0.14388   0.16669   0.20572   0.21811   0.51765
 Alpha virt. eigenvalues --    0.58290   0.58648   0.59851   0.65406   0.76136
 Alpha virt. eigenvalues --    0.77882   0.77988   0.79325   0.82604   0.86113

 Mulliken charges:
               1
     1  O   -0.473079
     2  H    0.235925
     3  H    0.237158
     4  O   -0.472993
     5  H    0.235973
     6  H    0.237015
 Sum of Mulliken charges =  -0.00000

 Dipole moment (field-independent basis, Debye):
    X=             -0.1225    Y=             -0.0046    Z=              0.0000  Tot=              0.1226
 Quadrupole moment (field-independent basis, Debye-Ang):
   XX=             -7.9035   YY=             -0.2485   ZZ=            -14.7100
   XY=             -0.0840   XZ=              0.0000   YZ=              0.0000

 Normal termination of Gaussian 16 at Sat Aug 27 04:09:46 2022.
