 Gaussian 16, Revision A.03,
 Gaussian 16:  ES64L-G16RevA.03 25-Dec-2016

 ------------------
 #p CCSD(T)/cc-pVTZ
 ------------------

 ------------
 H2O_H2O_3506
 ------------
 Symbolic Z-matrix:
 Charge =  0 Multiplicity = 1

                         Standard orientation:
 ---------------------------------------------------------------------
 Center     Atomic      Atomic             Coordinates (Angstroms)
 Number     Number       Type             X           Y           Z
 ---------------------------------------------------------------------
      1          8           0        0.021859   -2.660321    0.000000
      2          1           0       -0.778115   -3.230888    0.000000
      3          1           0        0.821027   -3.232017    0.000000
      4          8           0        0.021859    2.668985    0.000000
      5          1           0        0.542593    3.502257    0.000000
      6          1           0       -0.935254    2.891336    0.000000
 ---------------------------------------------------------------------

 SCF Done:  E(RHF) =  -152.106485541     A.U. after   10 cycles
 E2 =    -0.5259803010D+00 EUMP2 =    -0.15263246584237D+03
 CCSD(T)
 CCSD(T)= -0.15265970439D+03

 The electronic state is 1-A'.
 Alpha  occ. eigenvalues --  -20.55069 -20.54999  -1.32364  -1.32292  -0.69772
 Alpha  occ. eigenvalues --   -0.69699  -0.55767  -0.55696  -0.49468  -0.49398
 Alpha virt. eigenvalues --    0.14428   0.14700   0.20530   0.20660   0.54770
 Alpha virt. eigenvalues --    0.54903   0.57631   0.57716   0.68015   0.69055
 Alpha virt. eigenvalues --    0.79408   0.79479   0.80849   0.80947   0.82765

 Mulliken charges:
               1
     1  O   -0.503446
     2  H    0.250922
     3  H    0.252525
     4  O   -0.503332
     5  H    0.250569
     6  H    0.252762
 Sum of Mulliken charges =   0.00000

 Dipole moment (field-independent basis, Debye):
    X=             -0.7484    Y=             -0.1522    Z=              0.0000  Tot=              0.7637
 Quadrupole moment (field-independent basis, Debye-Ang):
   XX=             -8.1097   YY=              8.7481   ZZ=            -14.7103
   XY=             -1.3800   XZ=              0.0000   YZ=              0.0000

 Normal termination of Gaussian 16 at Fri Aug 26 22:53:45 2022.
