 Gaussian 16, Revision A.03,
 Gaussian 16:  ES64L-G16RevA.03 25-Dec-2016

 ------------------
 #p CCSD(T)/cc-pVTZ
 ------------------

 ------------
 H2O_H2O_1284
 ------------
 Symbolic Z-matrix:
 Charge =  0 Multiplicity = 1

                         Standard orientation:
 ---------------------------------------------------------------------
 Center     Atomic      Atomic             Coordinates (Angstroms)
 Number     Number       Type             X           Y           Z
 ---------------------------------------------------------------------
      1          8           0        0.031748   -1.471298    0.000000
      2          1           0       -0.768875   -2.040954    0.000000
      3          1           0        0.830264   -2.043904    0.000000
      4          8           0        0.031748    1.490431    0.000000
      5          1           0        0.380958    2.408885    0.000000
      6          1           0       -0.950317    1.522903    0.000000
 ---------------------------------------------------------------------

 SCF Done:  E(RHF) =  -152.102274943     A.U. after   11 cycles
 E2 =    -0.5274792348D+00 EUMP2 =    -0.15262975417756D+03
 CCSD(T)
 CCSD(T)= -0.15265701750D+03

 The electronic state is 1-A'.
 Alpha  occ. eigenvalues --  -20.54237 -20.53747  -1.31584  -1.30998  -0.69006
 Alpha  occ. eigenvalues --   -0.68432  -0.55760  -0.53198  -0.48746  -0.48008
 Alpha virt. eigenvalues --    0.14155   0.16771   0.20422   0.22218   0.52662
 Alpha virt. eigenvalues --    0.58184   0.58290   0.59138   0.66845   0.76536
 Alpha virt. eigenvalues --    0.77404   0.78112   0.79871   0.82724   0.85815

 Mulliken charges:
               1
     1  O   -0.476816
     2  H    0.233564
     3  H    0.243940
     4  O   -0.472197
     5  H    0.229409
     6  H    0.242099
 Sum of Mulliken charges =  -0.00000

 Dipole moment (field-independent basis, Debye):
    X=             -1.0335    Y=             -0.3634    Z=              0.0000  Tot=              1.0955
 Quadrupole moment (field-independent basis, Debye-Ang):
   XX=             -8.5164   YY=             -0.9564   ZZ=            -14.7133
   XY=             -0.8557   XZ=              0.0000   YZ=              0.0000

 Normal termination of Gaussian 16 at Sat Aug 27 03:37:13 2022.
