 Gaussian 16, Revision A.03,
 Gaussian 16:  ES64L-G16RevA.03 25-Dec-2016

 ------------------
 #p CCSD(T)/cc-pVTZ
 ------------------

 -----------
 H2O_H2O_626
 -----------
 Symbolic Z-matrix:
 Charge =  0 Multiplicity = 1

                         Standard orientation:
 ---------------------------------------------------------------------
 Center     Atomic      Atomic             Coordinates (Angstroms)
 Number     Number       Type             X           Y           Z
 ---------------------------------------------------------------------
      1          8           0        0.003735   -1.135865    0.000000
      2          1           0       -0.795997   -1.706771    0.000000
      3          1           0        0.803145   -1.707223    0.000000
      4          8           0        0.003735    1.136107    0.000000
      5          1           0        0.764417    1.758096    0.000000
      6          1           0       -0.831331    1.653959    0.000000
 ---------------------------------------------------------------------

 SCF Done:  E(RHF) =  -152.080531241     A.U. after   10 cycles
 E2 =    -0.5310581927D+00 EUMP2 =    -0.15261158943397D+03
 CCSD(T)
 CCSD(T)= -0.15263878997D+03

 The electronic state is 1-A'.
 Alpha  occ. eigenvalues --  -20.52537 -20.52529  -1.31134  -1.29490  -0.68223
 Alpha  occ. eigenvalues --   -0.67175  -0.58399  -0.48452  -0.47681  -0.46107
 Alpha virt. eigenvalues --    0.14578   0.17918   0.20572   0.22546   0.50174
 Alpha virt. eigenvalues --    0.59022   0.59069   0.64691   0.72167   0.76943
 Alpha virt. eigenvalues --    0.77938   0.80965   0.84318   0.86649   0.86851

 Mulliken charges:
               1
     1  O   -0.450043
     2  H    0.224023
     3  H    0.225944
     4  O   -0.449553
     5  H    0.222812
     6  H    0.226818
 Sum of Mulliken charges =  -0.00000

 Dipole moment (field-independent basis, Debye):
    X=             -0.1137    Y=             -0.0048    Z=              0.0000  Tot=              0.1139
 Quadrupole moment (field-independent basis, Debye-Ang):
   XX=             -8.0538   YY=             -4.0809   ZZ=            -14.7382
   XY=             -0.0420   XZ=              0.0000   YZ=              0.0000

 Normal termination of Gaussian 16 at Fri Aug 26 18:24:00 2022.
