 Gaussian 16, Revision A.03,
 Gaussian 16:  ES64L-G16RevA.03 25-Dec-2016

 ------------------
 #p CCSD(T)/cc-pVTZ
 ------------------

 ------------
 H2O_H2O_1236
 ------------
 Symbolic Z-matrix:
 Charge =  0 Multiplicity = 1

                         Standard orientation:
 ---------------------------------------------------------------------
 Center     Atomic      Atomic             Coordinates (Angstroms)
 Number     Number       Type             X           Y           Z
 ---------------------------------------------------------------------
      1          8           0        0.037689   -1.439793    0.000000
      2          1           0       -0.763153   -2.009141    0.000000
      3          1           0        0.835985   -2.012706    0.000000
      4          8           0        0.037689    1.467971    0.000000
      5          1           0        0.264397    2.424062    0.000000
      6          1           0       -0.940251    1.372356    0.000000
 ---------------------------------------------------------------------

 SCF Done:  E(RHF) =  -152.102505989     A.U. after   11 cycles
 E2 =    -0.5276079197D+00 EUMP2 =    -0.15263011390898D+03
 CCSD(T)
 CCSD(T)= -0.15265736079D+03

 The electronic state is 1-A'.
 Alpha  occ. eigenvalues --  -20.54417 -20.53656  -1.31772  -1.30904  -0.69194
 Alpha  occ. eigenvalues --   -0.68340  -0.55863  -0.53216  -0.48924  -0.47930
 Alpha virt. eigenvalues --    0.14058   0.16855   0.20333   0.22486   0.53135
 Alpha virt. eigenvalues --    0.58050   0.58113   0.58954   0.67433   0.76307
 Alpha virt. eigenvalues --    0.77090   0.77451   0.80588   0.82793   0.85663

 Mulliken charges:
               1
     1  O   -0.477455
     2  H    0.233302
     3  H    0.245605
     4  O   -0.472632
     5  H    0.227179
     6  H    0.244001
 Sum of Mulliken charges =  -0.00000

 Dipole moment (field-independent basis, Debye):
    X=             -1.2215    Y=             -0.5382    Z=              0.0000  Tot=              1.3348
 Quadrupole moment (field-independent basis, Debye-Ang):
   XX=             -8.7710   YY=             -1.3754   ZZ=            -14.7153
   XY=             -1.0882   XZ=              0.0000   YZ=              0.0000

 Normal termination of Gaussian 16 at Sat Aug 27 03:14:33 2022.
