 Gaussian 16, Revision A.03,
 Gaussian 16:  ES64L-G16RevA.03 25-Dec-2016

 ------------------
 #p CCSD(T)/cc-pVTZ
 ------------------

 ------------
 H2O_H2O_1872
 ------------
 Symbolic Z-matrix:
 Charge =  0 Multiplicity = 1

                         Standard orientation:
 ---------------------------------------------------------------------
 Center     Atomic      Atomic             Coordinates (Angstroms)
 Number     Number       Type             X           Y           Z
 ---------------------------------------------------------------------
      1          8           0        0.056760   -1.733725    0.000000
      2          1           0       -0.744369   -2.302669    0.000000
      3          1           0        0.854767   -2.307040    0.000000
      4          8           0        0.056760    1.832732    0.000000
      5          1           0       -0.402748    2.701270    0.000000
      6          1           0       -0.615812    1.116384    0.000000
 ---------------------------------------------------------------------

 SCF Done:  E(RHF) =  -152.108857368     A.U. after   10 cycles
 E2 =    -0.5264818653D+00 EUMP2 =    -0.15263533923339D+03
 CCSD(T)
 CCSD(T)= -0.15266247508D+03

 The electronic state is 1-A'.
 Alpha  occ. eigenvalues --  -20.56138 -20.53962  -1.33405  -1.31260  -0.70811
 Alpha  occ. eigenvalues --   -0.68631  -0.56868  -0.54731  -0.50526  -0.48392
 Alpha virt. eigenvalues --    0.13040   0.16531   0.19763   0.23879   0.53381
 Alpha virt. eigenvalues --    0.55381   0.56711   0.58299   0.66380   0.74841
 Alpha virt. eigenvalues --    0.77686   0.78216   0.79237   0.80791   0.84374

 Mulliken charges:
               1
     1  O   -0.499336
     2  H    0.247579
     3  H    0.258013
     4  O   -0.512547
     5  H    0.243025
     6  H    0.263265
 Sum of Mulliken charges =  -0.00000

 Dipole moment (field-independent basis, Debye):
    X=             -1.8987    Y=             -1.8642    Z=              0.0000  Tot=              2.6609
 Quadrupole moment (field-independent basis, Debye-Ang):
   XX=             -9.8264   YY=             -2.1075   ZZ=            -14.7197
   XY=             -3.5134   XZ=              0.0000   YZ=              0.0000

 Normal termination of Gaussian 16 at Sat Aug 27 07:17:13 2022.
