 Gaussian 16, Revision A.03,
 Gaussian 16:  ES64L-G16RevA.03 25-Dec-2016

 ------------------
 #p CCSD(T)/cc-pVTZ
 ------------------

 ------------
 H2O_H2O_1992
 ------------
 Symbolic Z-matrix:
 Charge =  0 Multiplicity = 1

                         Standard orientation:
 ---------------------------------------------------------------------
 Center     Atomic      Atomic             Coordinates (Angstroms)
 Number     Number       Type             X           Y           Z
 ---------------------------------------------------------------------
      1          8           0        0.051299   -1.819508    0.000000
      2          1           0       -0.749630   -2.388734    0.000000
      3          1           0        0.849507   -2.392543    0.000000
      4          8           0        0.051299    1.882969    0.000000
      5          1           0       -0.104982    2.853063    0.000000
      6          1           0       -0.815679    1.420525    0.000000
 ---------------------------------------------------------------------

 SCF Done:  E(RHF) =  -152.107044264     A.U. after   10 cycles
 E2 =    -0.5263926773D+00 EUMP2 =    -0.15263343694114D+03
 CCSD(T)
 CCSD(T)= -0.15266062303D+03

 The electronic state is 1-A'.
 Alpha  occ. eigenvalues --  -20.55453 -20.54241  -1.32728  -1.31518  -0.70142
 Alpha  occ. eigenvalues --   -0.68892  -0.56136  -0.54914  -0.49839  -0.48636
 Alpha virt. eigenvalues --    0.13425   0.16172   0.20079   0.22371   0.53883
 Alpha virt. eigenvalues --    0.54514   0.57333   0.58537   0.64686   0.75864
 Alpha virt. eigenvalues --    0.78612   0.78781   0.80252   0.80579   0.84903

 Mulliken charges:
               1
     1  O   -0.498064
     2  H    0.245553
     3  H    0.255004
     4  O   -0.502648
     5  H    0.242419
     6  H    0.257735
 Sum of Mulliken charges =  -0.00000

 Dipole moment (field-independent basis, Debye):
    X=             -1.7208    Y=             -1.1738    Z=              0.0000  Tot=              2.0830
 Quadrupole moment (field-independent basis, Debye-Ang):
   XX=             -9.4662   YY=              0.1497   ZZ=            -14.7147
   XY=             -2.7181   XZ=              0.0000   YZ=              0.0000

 Normal termination of Gaussian 16 at Sat Aug 27 07:58:16 2022.
