 Gaussian 16, Revision A.03,
 Gaussian 16:  ES64L-G16RevA.03 25-Dec-2016

 ------------------
 #p CCSD(T)/cc-pVTZ
 ------------------

 ------------
 H2O_H2O_2457
 ------------
 Symbolic Z-matrix:
 Charge =  0 Multiplicity = 1

                         Standard orientation:
 ---------------------------------------------------------------------
 Center     Atomic      Atomic             Coordinates (Angstroms)
 Number     Number       Type             X           Y           Z
 ---------------------------------------------------------------------
      1          8           0        0.025267   -2.100228    0.000000
      2          1           0       -0.774894   -2.670534    0.000000
      3          1           0        0.824248   -2.672185    0.000000
      4          8           0        0.025267    2.111956    0.000000
      5          1           0        0.490668    2.977350    0.000000
      6          1           0       -0.944288    2.271548    0.000000
 ---------------------------------------------------------------------

 SCF Done:  E(RHF) =  -152.105685678     A.U. after   10 cycles
 E2 =    -0.5261807137D+00 EUMP2 =    -0.15263186639180D+03
 CCSD(T)
 CCSD(T)= -0.15265910944D+03

 The electronic state is 1-A'.
 Alpha  occ. eigenvalues --  -20.54797 -20.54639  -1.32084  -1.31924  -0.69498
 Alpha  occ. eigenvalues --   -0.69332  -0.55488  -0.55228  -0.49185  -0.49024
 Alpha virt. eigenvalues --    0.14132   0.15451   0.20542   0.21077   0.54367
 Alpha virt. eigenvalues --    0.55605   0.57802   0.58046   0.64167   0.73543
 Alpha virt. eigenvalues --    0.79530   0.79998   0.80916   0.81162   0.82269

 Mulliken charges:
               1
     1  O   -0.498034
     2  H    0.247308
     3  H    0.250820
     4  O   -0.497730
     5  H    0.246588
     6  H    0.251048
 Sum of Mulliken charges =  -0.00000

 Dipole moment (field-independent basis, Debye):
    X=             -0.8567    Y=             -0.2107    Z=              0.0000  Tot=              0.8822
 Quadrupole moment (field-independent basis, Debye-Ang):
   XX=             -8.2253   YY=              4.2559   ZZ=            -14.7100
   XY=             -1.1444   XZ=              0.0000   YZ=              0.0000

 Normal termination of Gaussian 16 at Sat Aug 27 10:39:56 2022.
