 Gaussian 16, Revision A.03,
 Gaussian 16:  ES64L-G16RevA.03 25-Dec-2016

 ------------------
 #p CCSD(T)/cc-pVTZ
 ------------------

 ------------
 H2O_H2O_3035
 ------------
 Symbolic Z-matrix:
 Charge =  0 Multiplicity = 1

                         Standard orientation:
 ---------------------------------------------------------------------
 Center     Atomic      Atomic             Coordinates (Angstroms)
 Number     Number       Type             X           Y           Z
 ---------------------------------------------------------------------
      1          8           0        0.034783   -2.399631    0.000000
      2          1           0       -0.765496   -2.969770    0.000000
      3          1           0        0.833644   -2.971755    0.000000
      4          8           0        0.034783    2.423149    0.000000
      5          1           0        0.322609    3.362650    0.000000
      6          1           0       -0.947284    2.390729    0.000000
 ---------------------------------------------------------------------

 SCF Done:  E(RHF) =  -152.106418789     A.U. after   10 cycles
 E2 =    -0.5260182106D+00 EUMP2 =    -0.15263243699945D+03
 CCSD(T)
 CCSD(T)= -0.15265967439D+03

 The electronic state is 1-A'.
 Alpha  occ. eigenvalues --  -20.55087 -20.54850  -1.32381  -1.32140  -0.69790
 Alpha  occ. eigenvalues --   -0.69543  -0.55780  -0.55540  -0.49485  -0.49247
 Alpha virt. eigenvalues --    0.14213   0.15004   0.20454   0.20866   0.54637
 Alpha virt. eigenvalues --    0.55094   0.57603   0.57851   0.67005   0.70370
 Alpha virt. eigenvalues --    0.79387   0.79630   0.80780   0.81174   0.82706

 Mulliken charges:
               1
     1  O   -0.503028
     2  H    0.249841
     3  H    0.253219
     4  O   -0.502653
     5  H    0.248932
     6  H    0.253688
 Sum of Mulliken charges =  -0.00000

 Dipole moment (field-independent basis, Debye):
    X=             -1.1872    Y=             -0.4163    Z=              0.0000  Tot=              1.2581
 Quadrupole moment (field-independent basis, Debye-Ang):
   XX=             -8.5716   YY=              5.9673   ZZ=            -14.7105
   XY=             -2.0608   XZ=              0.0000   YZ=              0.0000

 Normal termination of Gaussian 16 at Fri Aug 26 18:43:54 2022.
