 Gaussian 16, Revision A.03,
 Gaussian 16:  ES64L-G16RevA.03 25-Dec-2016

 ------------------
 #p CCSD(T)/cc-pVTZ
 ------------------

 ------------
 H2O_H2O_1970
 ------------
 Symbolic Z-matrix:
 Charge =  0 Multiplicity = 1

                         Standard orientation:
 ---------------------------------------------------------------------
 Center     Atomic      Atomic             Coordinates (Angstroms)
 Number     Number       Type             X           Y           Z
 ---------------------------------------------------------------------
      1          8           0        0.055276   -1.794854    0.000000
      2          1           0       -0.745768   -2.363917    0.000000
      3          1           0        0.853368   -2.368051    0.000000
      4          8           0        0.055276    1.879231    0.000000
      5          1           0       -0.287071    2.800265    0.000000
      6          1           0       -0.704951    1.256687    0.000000
 ---------------------------------------------------------------------

 SCF Done:  E(RHF) =  -152.108021550     A.U. after   10 cycles
 E2 =    -0.5263926307D+00 EUMP2 =    -0.15263441418077D+03
 CCSD(T)
 CCSD(T)= -0.15266157490D+03

 The electronic state is 1-A'.
 Alpha  occ. eigenvalues --  -20.55828 -20.54133  -1.33099  -1.31420  -0.70510
 Alpha  occ. eigenvalues --   -0.68788  -0.56534  -0.54866  -0.50216  -0.48546
 Alpha virt. eigenvalues --    0.13194   0.16316   0.19905   0.23059   0.53913
 Alpha virt. eigenvalues --    0.54692   0.57012   0.58521   0.65484   0.75172
 Alpha virt. eigenvalues --    0.78225   0.78888   0.79373   0.80608   0.84608

 Mulliken charges:
               1
     1  O   -0.499750
     2  H    0.246977
     3  H    0.256860
     4  O   -0.508337
     5  H    0.243177
     6  H    0.261073
 Sum of Mulliken charges =  -0.00000

 Dipole moment (field-independent basis, Debye):
    X=             -1.8536    Y=             -1.5712    Z=              0.0000  Tot=              2.4299
 Quadrupole moment (field-independent basis, Debye-Ang):
   XX=             -9.7256   YY=             -1.0140   ZZ=            -14.7171
   XY=             -3.2665   XZ=              0.0000   YZ=              0.0000

 Normal termination of Gaussian 16 at Sat Aug 27 07:50:47 2022.
