 Gaussian 16, Revision A.03,
 Gaussian 16:  ES64L-G16RevA.03 25-Dec-2016

 ------------------
 #p CCSD(T)/cc-pVTZ
 ------------------

 ------------
 H2O_H2O_1485
 ------------
 Symbolic Z-matrix:
 Charge =  0 Multiplicity = 1

                         Standard orientation:
 ---------------------------------------------------------------------
 Center     Atomic      Atomic             Coordinates (Angstroms)
 Number     Number       Type             X           Y           Z
 ---------------------------------------------------------------------
      1          8           0        0.034790   -1.575308    0.000000
      2          1           0       -0.765856   -2.144931    0.000000
      3          1           0        0.833283   -2.147947    0.000000
      4          8           0        0.034790    1.598781    0.000000
      5          1           0        0.323222    2.538097    0.000000
      6          1           0       -0.947297    1.566994    0.000000
 ---------------------------------------------------------------------

 SCF Done:  E(RHF) =  -152.103892503     A.U. after   10 cycles
 E2 =    -0.5270610189D+00 EUMP2 =    -0.15263095352159D+03
 CCSD(T)
 CCSD(T)= -0.15265819547D+03

 The electronic state is 1-A'.
 Alpha  occ. eigenvalues --  -20.54509 -20.53957  -1.31807  -1.31214  -0.69233
 Alpha  occ. eigenvalues --   -0.68625  -0.55607  -0.53911  -0.48934  -0.48279
 Alpha virt. eigenvalues --    0.14036   0.16539   0.20389   0.22074   0.53023
 Alpha virt. eigenvalues --    0.57070   0.58020   0.58749   0.64818   0.76874
 Alpha virt. eigenvalues --    0.77990   0.78770   0.79100   0.82063   0.85634

 Mulliken charges:
               1
     1  O   -0.481905
     2  H    0.236716
     3  H    0.246385
     4  O   -0.480569
     5  H    0.233553
     6  H    0.245820
 Sum of Mulliken charges =  -0.00000

 Dipole moment (field-independent basis, Debye):
    X=             -1.1456    Y=             -0.4423    Z=              0.0000  Tot=              1.2280
 Quadrupole moment (field-independent basis, Debye-Ang):
   XX=             -8.6207   YY=             -0.1901   ZZ=            -14.7120
   XY=             -1.1039   XZ=              0.0000   YZ=              0.0000

 Normal termination of Gaussian 16 at Sat Aug 27 05:02:47 2022.
