 Gaussian 16, Revision A.03,
 Gaussian 16:  ES64L-G16RevA.03 25-Dec-2016

 ------------------
 #p CCSD(T)/cc-pVTZ
 ------------------

 -----------
 H2O_H2O_446
 -----------
 Symbolic Z-matrix:
 Charge =  0 Multiplicity = 1

                         Standard orientation:
 ---------------------------------------------------------------------
 Center     Atomic      Atomic             Coordinates (Angstroms)
 Number     Number       Type             X           Y           Z
 ---------------------------------------------------------------------
      1          8           0        0.056231   -0.979976    0.000000
      2          1           0       -0.746016   -1.547343    0.000000
      3          1           0        0.853108   -1.554861    0.000000
      4          8           0        0.056231    1.071390    0.000000
      5          1           0       -0.343723    1.968911    0.000000
      6          1           0       -0.663071    0.401979    0.000000
 ---------------------------------------------------------------------

 SCF Done:  E(RHF) =  -152.059149045     A.U. after   11 cycles
 E2 =    -0.5363442909D+00 EUMP2 =    -0.15259549333567D+03
 CCSD(T)
 CCSD(T)= -0.15262191537D+03

 The electronic state is 1-A'.
 Alpha  occ. eigenvalues --  -20.55979 -20.50333  -1.35831  -1.27927  -0.73370
 Alpha  occ. eigenvalues --   -0.69897  -0.53083  -0.52230  -0.50755  -0.44873
 Alpha virt. eigenvalues --    0.13154   0.18822   0.19374   0.26120   0.50273
 Alpha virt. eigenvalues --    0.55419   0.61786   0.65170   0.72252   0.74812
 Alpha virt. eigenvalues --    0.78764   0.81226   0.83799   0.85117   0.87688

 Mulliken charges:
               1
     1  O   -0.397686
     2  H    0.203794
     3  H    0.236286
     4  O   -0.485544
     5  H    0.185549
     6  H    0.257603
 Sum of Mulliken charges =  -0.00000

 Dipole moment (field-independent basis, Debye):
    X=             -1.6390    Y=             -2.0768    Z=              0.0000  Tot=              2.6456
 Quadrupole moment (field-independent basis, Debye-Ang):
   XX=             -9.8039   YY=             -6.5028   ZZ=            -14.6663
   XY=             -1.9281   XZ=              0.0000   YZ=              0.0000

 Normal termination of Gaussian 16 at Fri Aug 26 16:31:51 2022.
