 Gaussian 16, Revision A.03,
 Gaussian 16:  ES64L-G16RevA.03 25-Dec-2016

 ------------------
 #p CCSD(T)/cc-pVTZ
 ------------------

 -----------
 H2O_H2O_319
 -----------
 Symbolic Z-matrix:
 Charge =  0 Multiplicity = 1

                         Standard orientation:
 ---------------------------------------------------------------------
 Center     Atomic      Atomic             Coordinates (Angstroms)
 Number     Number       Type             X           Y           Z
 ---------------------------------------------------------------------
      1          8           0        0.054270   -0.921333    0.000000
      2          1           0       -0.748062   -1.488580    0.000000
      3          1           0        0.851061   -1.496336    0.000000
      4          8           0        0.054270    0.998317    0.000000
      5          1           0       -0.224973    1.940405    0.000000
      6          1           0       -0.746339    0.428639    0.000000
 ---------------------------------------------------------------------

 SCF Done:  E(RHF) =  -152.034146463     A.U. after   11 cycles
 E2 =    -0.5389708602D+00 EUMP2 =    -0.15257311732321D+03
 CCSD(T)
 CCSD(T)= -0.15259940505D+03

 The electronic state is 1-A'.
 Alpha  occ. eigenvalues --  -20.54907 -20.50526  -1.35911  -1.27686  -0.73487
 Alpha  occ. eigenvalues --   -0.69831  -0.54106  -0.52090  -0.47751  -0.44597
 Alpha virt. eigenvalues --    0.13461   0.18871   0.19512   0.25234   0.50999
 Alpha virt. eigenvalues --    0.55802   0.61148   0.65162   0.72588   0.75760
 Alpha virt. eigenvalues --    0.80039   0.81103   0.83968   0.84823   0.88136

 Mulliken charges:
               1
     1  O   -0.385014
     2  H    0.189867
     3  H    0.225856
     4  O   -0.447753
     5  H    0.166189
     6  H    0.250855
 Sum of Mulliken charges =  -0.00000

 Dipole moment (field-independent basis, Debye):
    X=             -1.5326    Y=             -1.7129    Z=              0.0000  Tot=              2.2985
 Quadrupole moment (field-independent basis, Debye-Ang):
   XX=             -9.7205   YY=             -6.8750   ZZ=            -14.6562
   XY=             -1.4867   XZ=              0.0000   YZ=              0.0000

 Normal termination of Gaussian 16 at Fri Aug 26 15:13:12 2022.
