 Gaussian 16, Revision A.03,
 Gaussian 16:  ES64L-G16RevA.03 25-Dec-2016

 ------------------
 #p CCSD(T)/cc-pVTZ
 ------------------

 ------------
 H2O_H2O_3596
 ------------
 Symbolic Z-matrix:
 Charge =  0 Multiplicity = 1

                         Standard orientation:
 ---------------------------------------------------------------------
 Center     Atomic      Atomic             Coordinates (Angstroms)
 Number     Number       Type             X           Y           Z
 ---------------------------------------------------------------------
      1          8           0        0.056098   -2.655090    0.000000
      2          1           0       -0.744492   -3.224794    0.000000
      3          1           0        0.854648   -3.227648    0.000000
      4          8           0        0.056098    2.746832    0.000000
      5          1           0       -0.346472    3.643182    0.000000
      6          1           0       -0.661249    2.075326    0.000000
 ---------------------------------------------------------------------

 SCF Done:  E(RHF) =  -152.107614941     A.U. after   10 cycles
 E2 =    -0.5258917678D+00 EUMP2 =    -0.15263350670913D+03
 CCSD(T)
 CCSD(T)= -0.15266071960D+03

 The electronic state is 1-A'.
 Alpha  occ. eigenvalues --  -20.55698 -20.54950  -1.32996  -1.32249  -0.70402
 Alpha  occ. eigenvalues --   -0.69642  -0.56453  -0.55698  -0.50109  -0.49364
 Alpha virt. eigenvalues --    0.13797   0.14868   0.20060   0.20940   0.54135
 Alpha virt. eigenvalues --    0.54892   0.57094   0.57794   0.67312   0.68971
 Alpha virt. eigenvalues --    0.78774   0.79501   0.80162   0.80620   0.82640

 Mulliken charges:
               1
     1  O   -0.510016
     2  H    0.253148
     3  H    0.256943
     4  O   -0.509494
     5  H    0.250938
     6  H    0.258482
 Sum of Mulliken charges =  -0.00000

 Dipole moment (field-independent basis, Debye):
    X=             -1.9227    Y=             -1.6166    Z=              0.0000  Tot=              2.5120
 Quadrupole moment (field-independent basis, Debye-Ang):
   XX=             -9.7831   YY=              2.7484   ZZ=            -14.7128
   XY=             -5.0768   XZ=              0.0000   YZ=              0.0000

 Normal termination of Gaussian 16 at Sat Aug 27 01:46:32 2022.
