 Gaussian 16, Revision A.03,
 Gaussian 16:  ES64L-G16RevA.03 25-Dec-2016

 ------------------
 #p CCSD(T)/cc-pVTZ
 ------------------

 -----------
 H2O_H2O_730
 -----------
 Symbolic Z-matrix:
 Charge =  0 Multiplicity = 1

                         Standard orientation:
 ---------------------------------------------------------------------
 Center     Atomic      Atomic             Coordinates (Angstroms)
 Number     Number       Type             X           Y           Z
 ---------------------------------------------------------------------
      1          8           0        0.018362   -1.185914    0.000000
      2          1           0       -0.781967   -1.755982    0.000000
      3          1           0        0.817173   -1.758108    0.000000
      4          8           0        0.018362    1.191927    0.000000
      5          1           0        0.592977    1.988999    0.000000
      6          1           0       -0.921981    1.476985    0.000000
 ---------------------------------------------------------------------

 SCF Done:  E(RHF) =  -152.087908548     A.U. after   11 cycles
 E2 =    -0.5300577582D+00 EUMP2 =    -0.15261796630614D+03
 CCSD(T)
 CCSD(T)= -0.15264521581D+03

 The electronic state is 1-A'.
 Alpha  occ. eigenvalues --  -20.52992 -20.52809  -1.31153  -1.29868  -0.68371
 Alpha  occ. eigenvalues --   -0.67515  -0.57569  -0.49156  -0.48461  -0.46572
 Alpha virt. eigenvalues --    0.14486   0.17636   0.20535   0.22566   0.50928
 Alpha virt. eigenvalues --    0.58807   0.58911   0.63469   0.71781   0.76626
 Alpha virt. eigenvalues --    0.77148   0.80447   0.84072   0.86477   0.86856

 Mulliken charges:
               1
     1  O   -0.458376
     2  H    0.224046
     3  H    0.233093
     4  O   -0.449513
     5  H    0.217422
     6  H    0.233328
 Sum of Mulliken charges =  -0.00000

 Dipole moment (field-independent basis, Debye):
    X=             -0.5667    Y=             -0.1178    Z=              0.0000  Tot=              0.5788
 Quadrupole moment (field-independent basis, Debye-Ang):
   XX=             -8.2116   YY=             -3.5164   ZZ=            -14.7303
   XY=             -0.2600   XZ=              0.0000   YZ=              0.0000

 Normal termination of Gaussian 16 at Fri Aug 26 19:30:04 2022.
