 Gaussian 16, Revision A.03,
 Gaussian 16:  ES64L-G16RevA.03 25-Dec-2016

 ------------------
 #p CCSD(T)/cc-pVTZ
 ------------------

 ------------
 H2O_H2O_2155
 ------------
 Symbolic Z-matrix:
 Charge =  0 Multiplicity = 1

                         Standard orientation:
 ---------------------------------------------------------------------
 Center     Atomic      Atomic             Coordinates (Angstroms)
 Number     Number       Type             X           Y           Z
 ---------------------------------------------------------------------
      1          8           0        0.018361   -1.943771    0.000000
      2          1           0       -0.781674   -2.514253    0.000000
      3          1           0        0.817468   -2.515552    0.000000
      4          8           0        0.018361    1.949803    0.000000
      5          1           0        0.592562    2.747173    0.000000
      6          1           0       -0.922130    2.234375    0.000000
 ---------------------------------------------------------------------

 SCF Done:  E(RHF) =  -152.105106437     A.U. after   10 cycles
 E2 =    -0.5263458759D+00 EUMP2 =    -0.15263145231279D+03
 CCSD(T)
 CCSD(T)= -0.15265869736D+03

 The electronic state is 1-A'.
 Alpha  occ. eigenvalues --  -20.54595 -20.54499  -1.31878  -1.31778  -0.69296
 Alpha  occ. eigenvalues --   -0.69192  -0.55370  -0.54915  -0.48983  -0.48868
 Alpha virt. eigenvalues --    0.14138   0.15728   0.20583   0.21213   0.54023
 Alpha virt. eigenvalues --    0.56184   0.57905   0.58198   0.62214   0.75045
 Alpha virt. eigenvalues --    0.79433   0.80390   0.80425   0.81151   0.82380

 Mulliken charges:
               1
     1  O   -0.493364
     2  H    0.245182
     3  H    0.248291
     4  O   -0.493249
     5  H    0.244671
     6  H    0.248468
 Sum of Mulliken charges =  -0.00000

 Dipole moment (field-independent basis, Debye):
    X=             -0.6192    Y=             -0.1099    Z=              0.0000  Tot=              0.6289
 Quadrupole moment (field-independent basis, Debye-Ang):
   XX=             -8.0480   YY=              3.2130   ZZ=            -14.7096
   XY=             -0.7013   XZ=              0.0000   YZ=              0.0000

 Normal termination of Gaussian 16 at Sat Aug 27 08:53:53 2022.
