 Gaussian 16, Revision A.03,
 Gaussian 16:  ES64L-G16RevA.03 25-Dec-2016

 ------------------
 #p CCSD(T)/cc-pVTZ
 ------------------

 -----------
 H2O_H2O_265
 -----------
 Symbolic Z-matrix:
 Charge =  0 Multiplicity = 1

                         Standard orientation:
 ---------------------------------------------------------------------
 Center     Atomic      Atomic             Coordinates (Angstroms)
 Number     Number       Type             X           Y           Z
 ---------------------------------------------------------------------
      1          8           0        0.047598   -0.909207    0.000000
      2          1           0       -0.754464   -1.476835    0.000000
      3          1           0        0.844663   -1.483832    0.000000
      4          8           0        0.047598    0.959557    0.000000
      5          1           0        0.021235    1.941804    0.000000
      6          1           0       -0.873010    0.616066    0.000000
 ---------------------------------------------------------------------

 SCF Done:  E(RHF) =  -152.027853909     A.U. after   11 cycles
 E2 =    -0.5391730250D+00 EUMP2 =    -0.15256702693387D+03
 CCSD(T)
 CCSD(T)= -0.15259341080D+03

 The electronic state is 1-A'.
 Alpha  occ. eigenvalues --  -20.53453 -20.51353  -1.34788  -1.27864  -0.71972
 Alpha  occ. eigenvalues --   -0.68808  -0.57266  -0.51278  -0.44701  -0.44619
 Alpha virt. eigenvalues --    0.13949   0.18616   0.19813   0.24122   0.52618
 Alpha virt. eigenvalues --    0.56896   0.59161   0.64418   0.72604   0.76560
 Alpha virt. eigenvalues --    0.80768   0.82456   0.82917   0.84324   0.88499

 Mulliken charges:
               1
     1  O   -0.399526
     2  H    0.189069
     3  H    0.217490
     4  O   -0.399176
     5  H    0.154132
     6  H    0.238011
 Sum of Mulliken charges =  -0.00000

 Dipole moment (field-independent basis, Debye):
    X=             -1.3304    Y=             -1.0717    Z=              0.0000  Tot=              1.7084
 Quadrupole moment (field-independent basis, Debye-Ang):
   XX=             -9.3974   YY=             -6.8269   ZZ=            -14.6830
   XY=             -0.9170   XZ=              0.0000   YZ=              0.0000

 Normal termination of Gaussian 16 at Fri Aug 26 14:41:06 2022.
