 Gaussian 16, Revision A.03,
 Gaussian 16:  ES64L-G16RevA.03 25-Dec-2016

 ------------------
 #p CCSD(T)/cc-pVTZ
 ------------------

 ------------
 H2O_H2O_3740
 ------------
 Symbolic Z-matrix:
 Charge =  0 Multiplicity = 1

                         Standard orientation:
 ---------------------------------------------------------------------
 Center     Atomic      Atomic             Coordinates (Angstroms)
 Number     Number       Type             X           Y           Z
 ---------------------------------------------------------------------
      1          8           0        0.047525   -2.757194    0.000000
      2          1           0       -0.752884   -3.327151    0.000000
      3          1           0        0.846256   -3.329501    0.000000
      4          8           0        0.047525    2.807821    0.000000
      5          1           0        0.018307    3.789987    0.000000
      6          1           0       -0.872081    2.461656    0.000000
 ---------------------------------------------------------------------

 SCF Done:  E(RHF) =  -152.107091682     A.U. after   10 cycles
 E2 =    -0.5259239494D+00 EUMP2 =    -0.15263301563160D+03
 CCSD(T)
 CCSD(T)= -0.15266024133D+03

 The electronic state is 1-A'.
 Alpha  occ. eigenvalues --  -20.55408 -20.55025  -1.32705  -1.32320  -0.70112
 Alpha  occ. eigenvalues --   -0.69718  -0.56137  -0.55752  -0.49814  -0.49431
 Alpha virt. eigenvalues --    0.14161   0.14690   0.20283   0.20730   0.54440
 Alpha virt. eigenvalues --    0.54863   0.57342   0.57725   0.67853   0.68712
 Alpha virt. eigenvalues --    0.79066   0.79442   0.80497   0.80883   0.82502

 Mulliken charges:
               1
     1  O   -0.507040
     2  H    0.251986
     3  H    0.255063
     4  O   -0.506698
     5  H    0.250803
     6  H    0.255886
 Sum of Mulliken charges =   0.00000

 Dipole moment (field-independent basis, Debye):
    X=             -1.6295    Y=             -0.8890    Z=              0.0000  Tot=              1.8562
 Quadrupole moment (field-independent basis, Debye-Ang):
   XX=             -9.2249   YY=              6.6409   ZZ=            -14.7115
   XY=             -3.8183   XZ=              0.0000   YZ=              0.0000

 Normal termination of Gaussian 16 at Sat Aug 27 02:53:55 2022.
