 Gaussian 16, Revision A.03,
 Gaussian 16:  ES64L-G16RevA.03 25-Dec-2016

 ------------------
 #p CCSD(T)/cc-pVTZ
 ------------------

 ------------
 H2O_H2O_3065
 ------------
 Symbolic Z-matrix:
 Charge =  0 Multiplicity = 1

                         Standard orientation:
 ---------------------------------------------------------------------
 Center     Atomic      Atomic             Coordinates (Angstroms)
 Number     Number       Type             X           Y           Z
 ---------------------------------------------------------------------
      1          8           0        0.047531   -2.398216    0.000000
      2          1           0       -0.753003   -2.967998    0.000000
      3          1           0        0.846137   -2.970696    0.000000
      4          8           0        0.047531    2.448821    0.000000
      5          1           0        0.018526    3.430994    0.000000
      6          1           0       -0.872151    2.102857    0.000000
 ---------------------------------------------------------------------

 SCF Done:  E(RHF) =  -152.106925460     A.U. after   10 cycles
 E2 =    -0.5259829425D+00 EUMP2 =    -0.15263290840245D+03
 CCSD(T)
 CCSD(T)= -0.15266013358D+03

 The electronic state is 1-A'.
 Alpha  occ. eigenvalues --  -20.55345 -20.54829  -1.32640  -1.32121  -0.70049
 Alpha  occ. eigenvalues --   -0.69515  -0.56062  -0.55544  -0.49748  -0.49232
 Alpha virt. eigenvalues --    0.13938   0.15079   0.20267   0.21007   0.54386
 Alpha virt. eigenvalues --    0.55008   0.57397   0.57865   0.66992   0.70294
 Alpha virt. eigenvalues --    0.79131   0.79638   0.80440   0.81114   0.82849

 Mulliken charges:
               1
     1  O   -0.505832
     2  H    0.250701
     3  H    0.255248
     4  O   -0.505413
     5  H    0.249014
     6  H    0.256282
 Sum of Mulliken charges =   0.00000

 Dipole moment (field-independent basis, Debye):
    X=             -1.6231    Y=             -0.8975    Z=              0.0000  Tot=              1.8547
 Quadrupole moment (field-independent basis, Debye-Ang):
   XX=             -9.2264   YY=              4.3898   ZZ=            -14.7116
   XY=             -3.2404   XZ=              0.0000   YZ=              0.0000

 Normal termination of Gaussian 16 at Fri Aug 26 19:04:29 2022.
