 Gaussian 16, Revision A.03,
 Gaussian 16:  ES64L-G16RevA.03 25-Dec-2016

 ------------------
 #p CCSD(T)/cc-pVTZ
 ------------------

 ------------
 H2O_H2O_2616
 ------------
 Symbolic Z-matrix:
 Charge =  0 Multiplicity = 1

                         Standard orientation:
 ---------------------------------------------------------------------
 Center     Atomic      Atomic             Coordinates (Angstroms)
 Number     Number       Type             X           Y           Z
 ---------------------------------------------------------------------
      1          8           0        0.049517   -2.155459    0.000000
      2          1           0       -0.751166   -2.725031    0.000000
      3          1           0        0.847973   -2.728149    0.000000
      4          8           0        0.049517    2.212379    0.000000
      5          1           0       -0.043405    3.190577    0.000000
      6          1           0       -0.845675    1.807241    0.000000
 ---------------------------------------------------------------------

 SCF Done:  E(RHF) =  -152.106959225     A.U. after   10 cycles
 E2 =    -0.5260700253D+00 EUMP2 =    -0.15263302925083D+03
 CCSD(T)
 CCSD(T)= -0.15266024407D+03

 The electronic state is 1-A'.
 Alpha  occ. eigenvalues --  -20.55376 -20.54636  -1.32665  -1.31924  -0.70076
 Alpha  occ. eigenvalues --   -0.69311  -0.56082  -0.55342  -0.49774  -0.49037
 Alpha virt. eigenvalues --    0.13624   0.15493   0.20192   0.21405   0.54069
 Alpha virt. eigenvalues --    0.54929   0.57391   0.58048   0.65915   0.72793
 Alpha virt. eigenvalues --    0.79084   0.79851   0.80113   0.81823   0.82991

 Mulliken charges:
               1
     1  O   -0.504583
     2  H    0.249471
     3  H    0.255671
     4  O   -0.504955
     5  H    0.247223
     6  H    0.257174
 Sum of Mulliken charges =  -0.00000

 Dipole moment (field-independent basis, Debye):
    X=             -1.6827    Y=             -1.0226    Z=              0.0000  Tot=              1.9690
 Quadrupole moment (field-independent basis, Debye-Ang):
   XX=             -9.3485   YY=              2.5124   ZZ=            -14.7124
   XY=             -3.0743   XZ=              0.0000   YZ=              0.0000

 Normal termination of Gaussian 16 at Fri Aug 26 14:22:45 2022.
