 Gaussian 16, Revision A.03,
 Gaussian 16:  ES64L-G16RevA.03 25-Dec-2016

 ------------------
 #p CCSD(T)/cc-pVTZ
 ------------------

 ------------
 H2O_H2O_1150
 ------------
 Symbolic Z-matrix:
 Charge =  0 Multiplicity = 1

                         Standard orientation:
 ---------------------------------------------------------------------
 Center     Atomic      Atomic             Coordinates (Angstroms)
 Number     Number       Type             X           Y           Z
 ---------------------------------------------------------------------
      1          8           0        0.000000    0.000000   -1.415211
      2          1           0        0.000000    0.799571   -1.986343
      3          1           0       -0.000000   -0.799571   -1.986343
      4          8           0       -0.000000    0.000000    1.415211
      5          1           0       -0.000000   -0.799571    1.986343
      6          1           0       -0.000000    0.799571    1.986343
 ---------------------------------------------------------------------

 SCF Done:  E(RHF) =  -152.099313909     A.U. after   10 cycles
 E2 =    -0.5278210851D+00 EUMP2 =    -0.15262713499405D+03
 CCSD(T)
 CCSD(T)= -0.15265445106D+03

 The electronic state is 1-AG.
 Alpha  occ. eigenvalues --  -20.53601 -20.53601  -1.31130  -1.30767  -0.68516
 Alpha  occ. eigenvalues --   -0.68256  -0.55922  -0.52146  -0.48361  -0.47665
 Alpha virt. eigenvalues --    0.14445   0.16977   0.20568   0.22006   0.51050
 Alpha virt. eigenvalues --    0.58470   0.58750   0.61104   0.69374   0.76296
 Alpha virt. eigenvalues --    0.77273   0.77964   0.79231   0.83231   0.86264

 Mulliken charges:
               1
     1  O   -0.467584
     2  H    0.233792
     3  H    0.233792
     4  O   -0.467584
     5  H    0.233792
     6  H    0.233792
 Sum of Mulliken charges =  -0.00000

 Dipole moment (field-independent basis, Debye):
    X=             -0.0000    Y=             -0.0000    Z=             -0.0000  Tot=              0.0000
 Quadrupole moment (field-independent basis, Debye-Ang):
   XX=            -14.7132   YY=             -7.9217   ZZ=             -1.2257
   XY=             -0.0000   XZ=             -0.0000   YZ=             -0.0000

 MP4DQ=-152.6359786\MP4SDQ=-152.6391527\CCSD=-152.638523\CCSD(T)=-152.6
 Normal termination of Gaussian 16 at Sat Aug 27 02:31:06 2022.
