 Gaussian 16, Revision A.03,
 Gaussian 16:  ES64L-G16RevA.03 25-Dec-2016

 ------------------
 #p CCSD(T)/cc-pVTZ
 ------------------

 ------------
 H2O_H2O_4576
 ------------
 Symbolic Z-matrix:
 Charge =  0 Multiplicity = 1

                         Standard orientation:
 ---------------------------------------------------------------------
 Center     Atomic      Atomic             Coordinates (Angstroms)
 Number     Number       Type             X           Y           Z
 ---------------------------------------------------------------------
      1          8           0        0.003735   -3.236618    0.000000
      2          1           0       -0.795892   -3.807671    0.000000
      3          1           0        0.803250   -3.807830    0.000000
      4          8           0        0.003735    3.236862    0.000000
      5          1           0        0.764303    3.858989    0.000000
      6          1           0       -0.831426    3.754560    0.000000
 ---------------------------------------------------------------------

 SCF Done:  E(RHF) =  -152.106862367     A.U. after   10 cycles
 E2 =    -0.5259246670D+00 EUMP2 =    -0.15263278703435D+03
 CCSD(T)
 CCSD(T)= -0.15266001891D+03

 The electronic state is 1-A'.
 Alpha  occ. eigenvalues --  -20.55210 -20.55209  -1.32506  -1.32505  -0.69913
 Alpha  occ. eigenvalues --   -0.69912  -0.55929  -0.55927  -0.49614  -0.49613
 Alpha virt. eigenvalues --    0.14414   0.14431   0.20465   0.20473   0.54654
 Alpha virt. eigenvalues --    0.54658   0.57524   0.57528   0.68288   0.68321
 Alpha virt. eigenvalues --    0.79265   0.79266   0.80708   0.80710   0.82635

 Mulliken charges:
               1
     1  O   -0.505644
     2  H    0.252743
     3  H    0.252901
     4  O   -0.505643
     5  H    0.252710
     6  H    0.252933
 Sum of Mulliken charges =  -0.00000

 Dipole moment (field-independent basis, Debye):
    X=             -0.1284    Y=             -0.0043    Z=              0.0000  Tot=              0.1284
 Quadrupole moment (field-independent basis, Debye-Ang):
   XX=             -7.8110   YY=             13.8403   ZZ=            -14.7107
   XY=             -0.2985   XZ=              0.0000   YZ=              0.0000

 4715\MP4DQ=-152.6419134\MP4SDQ=-152.644973\CCSD=-152.6443848\CCSD(T)=-
 Normal termination of Gaussian 16 at Sat Aug 27 08:08:31 2022.
