 Gaussian 16, Revision A.03,
 Gaussian 16:  ES64L-G16RevA.03 25-Dec-2016

 ------------------
 #p CCSD(T)/cc-pVTZ
 ------------------

 ------------
 H2O_H2O_1184
 ------------
 Symbolic Z-matrix:
 Charge =  0 Multiplicity = 1

                         Standard orientation:
 ---------------------------------------------------------------------
 Center     Atomic      Atomic             Coordinates (Angstroms)
 Number     Number       Type             X           Y           Z
 ---------------------------------------------------------------------
      1          8           0        0.031749   -1.418116    0.000000
      2          1           0       -0.768913   -1.987717    0.000000
      3          1           0        0.830226   -1.990777    0.000000
      4          8           0        0.031749    1.437245    0.000000
      5          1           0        0.381022    2.355676    0.000000
      6          1           0       -0.950314    1.469785    0.000000
 ---------------------------------------------------------------------

 SCF Done:  E(RHF) =  -152.101275439     A.U. after   11 cycles
 E2 =    -0.5277512081D+00 EUMP2 =    -0.15262902664693D+03
 CCSD(T)
 CCSD(T)= -0.15265629594D+03

 The electronic state is 1-A'.
 Alpha  occ. eigenvalues --  -20.54131 -20.53617  -1.31522  -1.30861  -0.68936
 Alpha  occ. eigenvalues --   -0.68313  -0.55909  -0.52790  -0.48704  -0.47840
 Alpha virt. eigenvalues --    0.14186   0.16900   0.20421   0.22337   0.52552
 Alpha virt. eigenvalues --    0.58240   0.58518   0.59601   0.68102   0.76485
 Alpha virt. eigenvalues --    0.77079   0.77777   0.80601   0.83015   0.85872

 Mulliken charges:
               1
     1  O   -0.474750
     2  H    0.232029
     3  H    0.243159
     4  O   -0.468143
     5  H    0.226842
     6  H    0.240864
 Sum of Mulliken charges =  -0.00000

 Dipole moment (field-independent basis, Debye):
    X=             -1.0261    Y=             -0.3650    Z=              0.0000  Tot=              1.0890
 Quadrupole moment (field-independent basis, Debye-Ang):
   XX=             -8.5281   YY=             -1.4083   ZZ=            -14.7148
   XY=             -0.8017   XZ=              0.0000   YZ=              0.0000

 Normal termination of Gaussian 16 at Sat Aug 27 02:48:35 2022.
