 Gaussian 16, Revision A.03,
 Gaussian 16:  ES64L-G16RevA.03 25-Dec-2016

 ------------------
 #p CCSD(T)/cc-pVTZ
 ------------------

 -----------
 H2O_H2O_107
 -----------
 Symbolic Z-matrix:
 Charge =  0 Multiplicity = 1

                         Standard orientation:
 ---------------------------------------------------------------------
 Center     Atomic      Atomic             Coordinates (Angstroms)
 Number     Number       Type             X           Y           Z
 ---------------------------------------------------------------------
      1          8           0        0.025275   -0.850452    0.000000
      2          1           0       -0.775743   -1.419552    0.000000
      3          1           0        0.823393   -1.423613    0.000000
      4          8           0        0.025275    0.862104    0.000000
      5          1           0        0.491981    1.726796    0.000000
      6          1           0       -0.944038    1.023157    0.000000
 ---------------------------------------------------------------------

 SCF Done:  E(RHF) =  -151.968992768     A.U. after   11 cycles
 E2 =    -0.5456584821D+00 EUMP2 =    -0.15251465125048D+03
 CCSD(T)
 CCSD(T)= -0.15254002486D+03

 The electronic state is 1-A'.
 Alpha  occ. eigenvalues --  -20.51675 -20.51332  -1.35388  -1.27164  -0.70988
 Alpha  occ. eigenvalues --   -0.67891  -0.62998  -0.51809  -0.43530  -0.36761
 Alpha virt. eigenvalues --    0.14391   0.19130   0.19948   0.23333   0.52372
 Alpha virt. eigenvalues --    0.57197   0.58935   0.65797   0.70199   0.78665
 Alpha virt. eigenvalues --    0.79746   0.83294   0.83617   0.85577   0.88475

 Mulliken charges:
               1
     1  O   -0.379059
     2  H    0.179679
     3  H    0.199453
     4  O   -0.356882
     5  H    0.136446
     6  H    0.220363
 Sum of Mulliken charges =  -0.00000

 Dipole moment (field-independent basis, Debye):
    X=             -0.7075    Y=             -0.2906    Z=              0.0000  Tot=              0.7648
 Quadrupole moment (field-independent basis, Debye-Ang):
   XX=             -8.6784   YY=             -8.1526   ZZ=            -14.7340
   XY=             -0.3163   XZ=              0.0000   YZ=              0.0000

 Normal termination of Gaussian 16 at Fri Aug 26 12:49:45 2022.
