 Gaussian 16, Revision A.03,
 Gaussian 16:  ES64L-G16RevA.03 25-Dec-2016

 ------------------
 #p CCSD(T)/cc-pVTZ
 ------------------

 ------------
 H2O_H2O_1499
 ------------
 Symbolic Z-matrix:
 Charge =  0 Multiplicity = 1

                         Standard orientation:
 ---------------------------------------------------------------------
 Center     Atomic      Atomic             Coordinates (Angstroms)
 Number     Number       Type             X           Y           Z
 ---------------------------------------------------------------------
      1          8           0        0.057290   -1.526213    0.000000
      2          1           0       -0.744051   -2.094859    0.000000
      3          1           0        0.855084   -2.099825    0.000000
      4          8           0        0.057290    1.640084    0.000000
      5          1           0       -0.511356    2.441425    0.000000
      6          1           0       -0.516322    0.842291    0.000000
 ---------------------------------------------------------------------

 SCF Done:  E(RHF) =  -152.110118267     A.U. after   10 cycles
 E2 =    -0.5271227844D+00 EUMP2 =    -0.15263724105098D+03
 CCSD(T)
 CCSD(T)= -0.15266431515D+03

 The electronic state is 1-A'.
 Alpha  occ. eigenvalues --  -20.56702 -20.53331  -1.33995  -1.30670  -0.71384
 Alpha  occ. eigenvalues --   -0.68166  -0.57443  -0.54169  -0.51115  -0.47806
 Alpha virt. eigenvalues --    0.12864   0.17184   0.19522   0.25823   0.51973
 Alpha virt. eigenvalues --    0.55677   0.56672   0.58408   0.68445   0.74918
 Alpha virt. eigenvalues --    0.75662   0.76943   0.81591   0.81605   0.83959

 Mulliken charges:
               1
     1  O   -0.495543
     2  H    0.247554
     3  H    0.261171
     4  O   -0.519486
     5  H    0.239533
     6  H    0.266772
 Sum of Mulliken charges =  -0.00000

 Dipole moment (field-independent basis, Debye):
    X=             -1.8898    Y=             -2.2314    Z=              0.0000  Tot=              2.9241
 Quadrupole moment (field-independent basis, Debye-Ang):
   XX=             -9.8597   YY=             -3.8779   ZZ=            -14.7268
   XY=             -3.4344   XZ=              0.0000   YZ=              0.0000

 Normal termination of Gaussian 16 at Sat Aug 27 05:07:44 2022.
