 Gaussian 16, Revision A.03,
 Gaussian 16:  ES64L-G16RevA.03 25-Dec-2016

 ------------------
 #p CCSD(T)/cc-pVTZ
 ------------------

 ----------
 H2O_H2O_22
 ----------
 Symbolic Z-matrix:
 Charge =  0 Multiplicity = 1

                         Standard orientation:
 ---------------------------------------------------------------------
 Center     Atomic      Atomic             Coordinates (Angstroms)
 Number     Number       Type             X           Y           Z
 ---------------------------------------------------------------------
      1          8           0        0.056926   -0.750027    0.000000
      2          1           0       -0.746113   -1.316272    0.000000
      3          1           0        0.853000   -1.326024    0.000000
      4          8           0        0.056926    0.848651    0.000000
      5          1           0       -0.399657    1.718731    0.000000
      6          1           0       -0.618052    0.134571    0.000000
 ---------------------------------------------------------------------

 SCF Done:  E(RHF) =  -151.838806393     A.U. after   12 cycles
 E2 =    -0.5567396714D+00 EUMP2 =    -0.15239554606433D+03
 CCSD(T)
 CCSD(T)= -0.15241886207D+03

 The electronic state is 1-A'.
 Alpha  occ. eigenvalues --  -20.57218 -20.46742  -1.46230  -1.24886  -0.82261
 Alpha  occ. eigenvalues --   -0.74800  -0.58000  -0.50189  -0.41818  -0.38264
 Alpha virt. eigenvalues --    0.12595   0.17472   0.21099   0.26308   0.48788
 Alpha virt. eigenvalues --    0.52683   0.62782   0.70668   0.73880   0.74423
 Alpha virt. eigenvalues --    0.76805   0.79197   0.84783   0.84818   0.89470

 Mulliken charges:
               1
     1  O   -0.224076
     2  H    0.141740
     3  H    0.203413
     4  O   -0.494967
     5  H    0.102323
     6  H    0.271566
 Sum of Mulliken charges =  -0.00000

 Dipole moment (field-independent basis, Debye):
    X=             -1.3868    Y=             -2.6897    Z=              0.0000  Tot=              3.0262
 Quadrupole moment (field-independent basis, Debye-Ang):
   XX=             -9.8843   YY=             -9.9043   ZZ=            -14.4864
   XY=             -1.5053   XZ=              0.0000   YZ=              0.0000

 Normal termination of Gaussian 16 at Fri Aug 26 11:58:13 2022.
