 Gaussian 16, Revision A.03,
 Gaussian 16:  ES64L-G16RevA.03 25-Dec-2016

 ------------------
 #p CCSD(T)/cc-pVTZ
 ------------------

 ------------
 H2O_H2O_3626
 ------------
 Symbolic Z-matrix:
 Charge =  0 Multiplicity = 1

                         Standard orientation:
 ---------------------------------------------------------------------
 Center     Atomic      Atomic             Coordinates (Angstroms)
 Number     Number       Type             X           Y           Z
 ---------------------------------------------------------------------
      1          8           0        0.003735   -2.731374    0.000000
      2          1           0       -0.795903   -3.302411    0.000000
      3          1           0        0.803239   -3.302600    0.000000
      4          8           0        0.003735    2.731617    0.000000
      5          1           0        0.764315    3.353731    0.000000
      6          1           0       -0.831417    3.249330    0.000000
 ---------------------------------------------------------------------

 SCF Done:  E(RHF) =  -152.106455662     A.U. after   10 cycles
 E2 =    -0.5259776738D+00 EUMP2 =    -0.15263243333621D+03
 CCSD(T)
 CCSD(T)= -0.15265967283D+03

 The electronic state is 1-A'.
 Alpha  occ. eigenvalues --  -20.55036 -20.55034  -1.32330  -1.32328  -0.69739
 Alpha  occ. eigenvalues --   -0.69737  -0.55734  -0.55728  -0.49435  -0.49433
 Alpha virt. eigenvalues --    0.14478   0.14648   0.20559   0.20619   0.54803
 Alpha virt. eigenvalues --    0.54866   0.57656   0.57685   0.68178   0.68892
 Alpha virt. eigenvalues --    0.79440   0.79447   0.80877   0.80913   0.82784

 Mulliken charges:
               1
     1  O   -0.503257
     2  H    0.251501
     3  H    0.251756
     4  O   -0.503254
     5  H    0.251457
     6  H    0.251797
 Sum of Mulliken charges =  -0.00000

 Dipole moment (field-independent basis, Debye):
    X=             -0.1280    Y=             -0.0043    Z=              0.0000  Tot=              0.1280
 Quadrupole moment (field-independent basis, Debye-Ang):
   XX=             -7.8180   YY=              9.7905   ZZ=            -14.7102
   XY=             -0.2344   XZ=              0.0000   YZ=              0.0000

 Normal termination of Gaussian 16 at Sat Aug 27 02:00:45 2022.
