 Gaussian 16, Revision A.03,
 Gaussian 16:  ES64L-G16RevA.03 25-Dec-2016

 ------------------
 #p CCSD(T)/cc-pVTZ
 ------------------

 ------------
 H2O_H2O_4356
 ------------
 Symbolic Z-matrix:
 Charge =  0 Multiplicity = 1

                         Standard orientation:
 ---------------------------------------------------------------------
 Center     Atomic      Atomic             Coordinates (Angstroms)
 Number     Number       Type             X           Y           Z
 ---------------------------------------------------------------------
      1          8           0        0.021859   -3.112379    0.000000
      2          1           0       -0.778057   -3.683028    0.000000
      3          1           0        0.821085   -3.683994    0.000000
      4          8           0        0.021859    3.121048    0.000000
      5          1           0        0.542507    3.954374    0.000000
      6          1           0       -0.935277    3.343300    0.000000
 ---------------------------------------------------------------------

 SCF Done:  E(RHF) =  -152.106855385     A.U. after   10 cycles
 E2 =    -0.5259283318D+00 EUMP2 =    -0.15263278371725D+03
 CCSD(T)
 CCSD(T)= -0.15266001556D+03

 The electronic state is 1-A'.
 Alpha  occ. eigenvalues --  -20.55223 -20.55171  -1.32519  -1.32467  -0.69926
 Alpha  occ. eigenvalues --   -0.69873  -0.55940  -0.55889  -0.49626  -0.49574
 Alpha virt. eigenvalues --    0.14402   0.14467   0.20453   0.20510   0.54642
 Alpha virt. eigenvalues --    0.54700   0.57512   0.57564   0.68271   0.68366
 Alpha virt. eigenvalues --    0.79253   0.79304   0.80696   0.80752   0.82624

 Mulliken charges:
               1
     1  O   -0.505609
     2  H    0.252289
     3  H    0.253319
     4  O   -0.505556
     5  H    0.252040
     6  H    0.253516
 Sum of Mulliken charges =  -0.00000

 Dipole moment (field-independent basis, Debye):
    X=             -0.7509    Y=             -0.1514    Z=              0.0000  Tot=              0.7660
 Quadrupole moment (field-independent basis, Debye-Ang):
   XX=             -8.1039   YY=             12.2424   ZZ=            -14.7108
   XY=             -1.7156   XZ=              0.0000   YZ=              0.0000

 Normal termination of Gaussian 16 at Sat Aug 27 06:51:10 2022.
