 Gaussian 16, Revision A.03,
 Gaussian 16:  ES64L-G16RevA.03 25-Dec-2016

 ------------------
 #p CCSD(T)/cc-pVTZ
 ------------------

 ------------
 H2O_H2O_2724
 ------------
 Symbolic Z-matrix:
 Charge =  0 Multiplicity = 1

                         Standard orientation:
 ---------------------------------------------------------------------
 Center     Atomic      Atomic             Coordinates (Angstroms)
 Number     Number       Type             X           Y           Z
 ---------------------------------------------------------------------
      1          8           0        0.057239   -2.177659    0.000000
      2          1           0       -0.743587   -2.747030    0.000000
      3          1           0        0.855551   -2.750548    0.000000
      4          8           0        0.057239    2.291633    0.000000
      5          1           0       -0.512133    3.092459    0.000000
      6          1           0       -0.515651    1.493321    0.000000
 ---------------------------------------------------------------------

 SCF Done:  E(RHF) =  -152.108491201     A.U. after   10 cycles
 E2 =    -0.5259913930D+00 EUMP2 =    -0.15263448259378D+03
 CCSD(T)
 CCSD(T)= -0.15266165764D+03

 The electronic state is 1-A'.
 Alpha  occ. eigenvalues --  -20.56037 -20.54568  -1.33321  -1.31871  -0.70726
 Alpha  occ. eigenvalues --   -0.69249  -0.56803  -0.55337  -0.50440  -0.48995
 Alpha virt. eigenvalues --    0.13032   0.15633   0.19836   0.22023   0.53864
 Alpha virt. eigenvalues --    0.54873   0.56866   0.58261   0.66674   0.71172
 Alpha virt. eigenvalues --    0.78453   0.79378   0.79856   0.80318   0.82699

 Mulliken charges:
               1
     1  O   -0.510177
     2  H    0.252916
     3  H    0.258950
     4  O   -0.512907
     5  H    0.249044
     6  H    0.262174
 Sum of Mulliken charges =   0.00000

 Dipole moment (field-independent basis, Debye):
    X=             -1.9487    Y=             -2.0553    Z=              0.0000  Tot=              2.8323
 Quadrupole moment (field-independent basis, Debye-Ang):
   XX=             -9.8617   YY=             -1.1650   ZZ=            -14.7161
   XY=             -4.6742   XZ=              0.0000   YZ=              0.0000

 Normal termination of Gaussian 16 at Fri Aug 26 15:29:17 2022.
