 Gaussian 16, Revision A.03,
 Gaussian 16:  ES64L-G16RevA.03 25-Dec-2016

 ------------------
 #p CCSD(T)/cc-pVTZ
 ------------------

 ------------
 H2O_H2O_3477
 ------------
 Symbolic Z-matrix:
 Charge =  0 Multiplicity = 1

                         Standard orientation:
 ---------------------------------------------------------------------
 Center     Atomic      Atomic             Coordinates (Angstroms)
 Number     Number       Type             X           Y           Z
 ---------------------------------------------------------------------
      1          8           0        0.007455   -2.651201    0.000000
      2          1           0       -0.792254   -3.222140    0.000000
      3          1           0        0.806888   -3.222527    0.000000
      4          8           0        0.007455    2.652175    0.000000
      5          1           0        0.725800    3.322612    0.000000
      6          1           0       -0.859712    3.114266    0.000000
 ---------------------------------------------------------------------

 SCF Done:  E(RHF) =  -152.106372246     A.U. after   10 cycles
 E2 =    -0.5259901968D+00 EUMP2 =    -0.15263236244290D+03
 CCSD(T)
 CCSD(T)= -0.15265960340D+03

 The electronic state is 1-A'.
 Alpha  occ. eigenvalues --  -20.55005 -20.54997  -1.32299  -1.32291  -0.69708
 Alpha  occ. eigenvalues --   -0.69700  -0.55700  -0.55686  -0.49403  -0.49395
 Alpha virt. eigenvalues --    0.14471   0.14706   0.20570   0.20652   0.54820
 Alpha virt. eigenvalues --    0.54917   0.57678   0.57717   0.68031   0.69127
 Alpha virt. eigenvalues --    0.79470   0.79485   0.80903   0.80958   0.82782

 Mulliken charges:
               1
     1  O   -0.502770
     2  H    0.251108
     3  H    0.251662
     4  O   -0.502756
     5  H    0.251012
     6  H    0.251744
 Sum of Mulliken charges =  -0.00000

 Dipole moment (field-independent basis, Debye):
    X=             -0.2552    Y=             -0.0171    Z=              0.0000  Tot=              0.2557
 Quadrupole moment (field-independent basis, Debye-Ang):
   XX=             -7.8456   YY=              9.1050   ZZ=            -14.7101
   XY=             -0.4493   XZ=              0.0000   YZ=              0.0000

 Normal termination of Gaussian 16 at Fri Aug 26 22:39:51 2022.
