 Gaussian 16, Revision A.03,
 Gaussian 16:  ES64L-G16RevA.03 25-Dec-2016

 ------------------
 #p CCSD(T)/cc-pVTZ
 ------------------

 ------------
 H2O_H2O_2828
 ------------
 Symbolic Z-matrix:
 Charge =  0 Multiplicity = 1

                         Standard orientation:
 ---------------------------------------------------------------------
 Center     Atomic      Atomic             Coordinates (Angstroms)
 Number     Number       Type             X           Y           Z
 ---------------------------------------------------------------------
      1          8           0        0.011143   -2.304850    0.000000
      2          1           0       -0.788666   -2.875649    0.000000
      3          1           0        0.810476   -2.876314    0.000000
      4          8           0        0.011143    2.307036    0.000000
      5          1           0        0.684225    3.022902    0.000000
      6          1           0       -0.884319    2.711577    0.000000
 ---------------------------------------------------------------------

 SCF Done:  E(RHF) =  -152.105865408     A.U. after   10 cycles
 E2 =    -0.5260816041D+00 EUMP2 =    -0.15263194701215D+03
 CCSD(T)
 CCSD(T)= -0.15265919488D+03

 The electronic state is 1-A'.
 Alpha  occ. eigenvalues --  -20.54824 -20.54800  -1.32115  -1.32091  -0.69527
 Alpha  occ. eigenvalues --   -0.69502  -0.55516  -0.55429  -0.49217  -0.49191
 Alpha virt. eigenvalues --    0.14359   0.15096   0.20612   0.20849   0.54795
 Alpha virt. eigenvalues --    0.55312   0.57786   0.57904   0.66142   0.71395
 Alpha virt. eigenvalues --    0.79599   0.79740   0.81088   0.81174   0.82392

 Mulliken charges:
               1
     1  O   -0.499725
     2  H    0.249257
     3  H    0.250472
     4  O   -0.499663
     5  H    0.249069
     6  H    0.250590
 Sum of Mulliken charges =  -0.00000

 Dipole moment (field-independent basis, Debye):
    X=             -0.3796    Y=             -0.0388    Z=              0.0000  Tot=              0.3816
 Quadrupole moment (field-independent basis, Debye-Ang):
   XX=             -7.8980   YY=              6.2589   ZZ=            -14.7097
   XY=             -0.5460   XZ=              0.0000   YZ=              0.0000

 Normal termination of Gaussian 16 at Fri Aug 26 16:33:16 2022.
