 Gaussian 16, Revision A.03,
 Gaussian 16:  ES64L-G16RevA.03 25-Dec-2016

 ------------------
 #p CCSD(T)/cc-pVTZ
 ------------------

 ----------
 H2O_H2O_30
 ----------
 Symbolic Z-matrix:
 Charge =  0 Multiplicity = 1

                         Standard orientation:
 ---------------------------------------------------------------------
 Center     Atomic      Atomic             Coordinates (Angstroms)
 Number     Number       Type             X           Y           Z
 ---------------------------------------------------------------------
      1          8           0        0.018364   -0.813640    0.000000
      2          1           0       -0.782311   -1.383224    0.000000
      3          1           0        0.816828   -1.386318    0.000000
      4          8           0        0.018364    0.819631    0.000000
      5          1           0        0.593461    1.616355    0.000000
      6          1           0       -0.921807    1.105259    0.000000
 ---------------------------------------------------------------------

 SCF Done:  E(RHF) =  -151.924703235     A.U. after   12 cycles
 E2 =    -0.5512488570D+00 EUMP2 =    -0.15247595209216D+03
 CCSD(T)
 CCSD(T)= -0.15250032356D+03

 The electronic state is 1-A'.
 Alpha  occ. eigenvalues --  -20.51637 -20.51463  -1.36992  -1.26898  -0.71643
 Alpha  occ. eigenvalues --   -0.68884  -0.64363  -0.53034  -0.43186  -0.33130
 Alpha virt. eigenvalues --    0.14320   0.19493   0.19916   0.23203   0.51551
 Alpha virt. eigenvalues --    0.57559   0.59047   0.65909   0.69270   0.78912
 Alpha virt. eigenvalues --    0.80323   0.83604   0.83639   0.85470   0.88347

 Mulliken charges:
               1
     1  O   -0.345205
     2  H    0.163528
     3  H    0.182809
     4  O   -0.331701
     5  H    0.123253
     6  H    0.207316
 Sum of Mulliken charges =  -0.00000

 Dipole moment (field-independent basis, Debye):
    X=             -0.5238    Y=             -0.1691    Z=              0.0000  Tot=              0.5504
 Quadrupole moment (field-independent basis, Debye-Ang):
   XX=             -8.6746   YY=             -9.1521   ZZ=            -14.7587
   XY=             -0.2851   XZ=              0.0000   YZ=              0.0000

 Normal termination of Gaussian 16 at Fri Aug 26 12:05:39 2022.
