 Gaussian 16, Revision A.03,
 Gaussian 16:  ES64L-G16RevA.03 25-Dec-2016

 ------------------
 #p CCSD(T)/cc-pVTZ
 ------------------

 ------------
 H2O_H2O_2752
 ------------
 Symbolic Z-matrix:
 Charge =  0 Multiplicity = 1

                         Standard orientation:
 ---------------------------------------------------------------------
 Center     Atomic      Atomic             Coordinates (Angstroms)
 Number     Number       Type             X           Y           Z
 ---------------------------------------------------------------------
      1          8           0        0.007455   -2.265621    0.000000
      2          1           0       -0.792278   -2.836526    0.000000
      3          1           0        0.806864   -2.836979    0.000000
      4          8           0        0.007455    2.266594    0.000000
      5          1           0        0.725828    2.937001    0.000000
      6          1           0       -0.859693    2.728720    0.000000
 ---------------------------------------------------------------------

 SCF Done:  E(RHF) =  -152.105764937     A.U. after   10 cycles
 E2 =    -0.5261006191D+00 EUMP2 =    -0.15263186555643D+03
 CCSD(T)
 CCSD(T)= -0.15265911455D+03

 The electronic state is 1-A'.
 Alpha  occ. eigenvalues --  -20.54785 -20.54774  -1.32076  -1.32064  -0.69488
 Alpha  occ. eigenvalues --   -0.69476  -0.55486  -0.55381  -0.49178  -0.49162
 Alpha virt. eigenvalues --    0.14349   0.15153   0.20624   0.20873   0.54786
 Alpha virt. eigenvalues --    0.55395   0.57805   0.57933   0.65724   0.71819
 Alpha virt. eigenvalues --    0.79614   0.79791   0.81149   0.81183   0.82274

 Mulliken charges:
               1
     1  O   -0.499088
     2  H    0.249120
     3  H    0.249971
     4  O   -0.499059
     5  H    0.249002
     6  H    0.250054
 Sum of Mulliken charges =  -0.00000

 Dipole moment (field-independent basis, Debye):
    X=             -0.2538    Y=             -0.0173    Z=              0.0000  Tot=              0.2543
 Quadrupole moment (field-independent basis, Debye-Ang):
   XX=             -7.8569   YY=              5.9919   ZZ=            -14.7096
   XY=             -0.3525   XZ=              0.0000   YZ=              0.0000

 Normal termination of Gaussian 16 at Fri Aug 26 15:46:25 2022.
