 Gaussian 16, Revision A.03,
 Gaussian 16:  ES64L-G16RevA.03 25-Dec-2016

 ------------------
 #p CCSD(T)/cc-pVTZ
 ------------------

 ------------
 H2O_H2O_1630
 ------------
 Symbolic Z-matrix:
 Charge =  0 Multiplicity = 1

                         Standard orientation:
 ---------------------------------------------------------------------
 Center     Atomic      Atomic             Coordinates (Angstroms)
 Number     Number       Type             X           Y           Z
 ---------------------------------------------------------------------
      1          8           0        0.018361   -1.664559    0.000000
      2          1           0       -0.781751   -2.234933    0.000000
      3          1           0        0.817391   -2.236449    0.000000
      4          8           0        0.018361    1.670586    0.000000
      5          1           0        0.592671    2.467878    0.000000
      6          1           0       -0.922091    1.955287    0.000000
 ---------------------------------------------------------------------

 SCF Done:  E(RHF) =  -152.103623898     A.U. after   10 cycles
 E2 =    -0.5268496487D+00 EUMP2 =    -0.15263047354637D+03
 CCSD(T)
 CCSD(T)= -0.15265773359D+03

 The electronic state is 1-A'.
 Alpha  occ. eigenvalues --  -20.54265 -20.54137  -1.31562  -1.31400  -0.68986
 Alpha  occ. eigenvalues --   -0.68826  -0.55400  -0.54018  -0.48704  -0.48439
 Alpha virt. eigenvalues --    0.14216   0.16312   0.20548   0.21626   0.52800
 Alpha virt. eigenvalues --    0.57654   0.58118   0.58542   0.62673   0.76414
 Alpha virt. eigenvalues --    0.78604   0.78759   0.79920   0.81687   0.84878

 Mulliken charges:
               1
     1  O   -0.481882
     2  H    0.238755
     3  H    0.243384
     4  O   -0.481585
     5  H    0.238152
     6  H    0.243177
 Sum of Mulliken charges =  -0.00000

 Dipole moment (field-independent basis, Debye):
    X=             -0.6097    Y=             -0.1126    Z=              0.0000  Tot=              0.6200
 Quadrupole moment (field-independent basis, Debye-Ang):
   XX=             -8.0757   YY=              0.9108   ZZ=            -14.7093
   XY=             -0.5319   XZ=              0.0000   YZ=              0.0000

 Normal termination of Gaussian 16 at Sat Aug 27 05:52:50 2022.
