 Gaussian 16, Revision A.03,
 Gaussian 16:  ES64L-G16RevA.03 25-Dec-2016

 ------------------
 #p CCSD(T)/cc-pVTZ
 ------------------

 -----------
 H2O_H2O_873
 -----------
 Symbolic Z-matrix:
 Charge =  0 Multiplicity = 1

                         Standard orientation:
 ---------------------------------------------------------------------
 Center     Atomic      Atomic             Coordinates (Angstroms)
 Number     Number       Type             X           Y           Z
 ---------------------------------------------------------------------
      1          8           0        0.057200   -1.197921    0.000000
      2          1           0       -0.744605   -1.765913    0.000000
      3          1           0        0.854525   -1.772184    0.000000
      4          8           0        0.057200    1.304229    0.000000
      5          1           0       -0.457136    2.141465    0.000000
      6          1           0       -0.567982    0.546168    0.000000
 ---------------------------------------------------------------------

 SCF Done:  E(RHF) =  -152.101460621     A.U. after   11 cycles
 E2 =    -0.5302705148D+00 EUMP2 =    -0.15263173113611D+03
 CCSD(T)
 CCSD(T)= -0.15265861099D+03

 The electronic state is 1-A'.
 Alpha  occ. eigenvalues --  -20.56902 -20.51763  -1.34740  -1.29279  -0.72064
 Alpha  occ. eigenvalues --   -0.68394  -0.56422  -0.52870  -0.51725  -0.46346
 Alpha virt. eigenvalues --    0.12940   0.18259   0.19314   0.26753   0.50499
 Alpha virt. eigenvalues --    0.55904   0.60239   0.61513   0.71287   0.73477
 Alpha virt. eigenvalues --    0.75393   0.81822   0.82659   0.83556   0.86667

 Mulliken charges:
               1
     1  O   -0.461122
     2  H    0.235051
     3  H    0.254021
     4  O   -0.517777
     5  H    0.221392
     6  H    0.268436
 Sum of Mulliken charges =  -0.00000

 Dipole moment (field-independent basis, Debye):
    X=             -1.7938    Y=             -2.2779    Z=              0.0000  Tot=              2.8994
 Quadrupole moment (field-independent basis, Debye-Ang):
   XX=             -9.8483   YY=             -5.2704   ZZ=            -14.7150
   XY=             -2.6746   XZ=              0.0000   YZ=              0.0000

 Normal termination of Gaussian 16 at Fri Aug 26 20:45:22 2022.
