 Gaussian 16, Revision A.03,
 Gaussian 16:  ES64L-G16RevA.03 25-Dec-2016

 ------------------
 #p CCSD(T)/cc-pVTZ
 ------------------

 ----------
 H2O_H2O_82
 ----------
 Symbolic Z-matrix:
 Charge =  0 Multiplicity = 1

                         Standard orientation:
 ---------------------------------------------------------------------
 Center     Atomic      Atomic             Coordinates (Angstroms)
 Number     Number       Type             X           Y           Z
 ---------------------------------------------------------------------
      1          8           0        0.025276   -0.837158    0.000000
      2          1           0       -0.775766   -1.406225    0.000000
      3          1           0        0.823371   -1.410350    0.000000
      4          8           0        0.025276    0.848807    0.000000
      5          1           0        0.492016    1.713480    0.000000
      6          1           0       -0.944031    1.009899    0.000000
 ---------------------------------------------------------------------

 SCF Done:  E(RHF) =  -151.956439377     A.U. after   12 cycles
 E2 =    -0.5472082514D+00 EUMP2 =    -0.15250364762849D+03
 CCSD(T)
 CCSD(T)= -0.15252876274D+03

 The electronic state is 1-A'.
 Alpha  occ. eigenvalues --  -20.51702 -20.51359  -1.35923  -1.27046  -0.71343
 Alpha  occ. eigenvalues --   -0.68240  -0.63155  -0.52207  -0.43410  -0.35823
 Alpha virt. eigenvalues --    0.14349   0.19230   0.19901   0.23341   0.52421
 Alpha virt. eigenvalues --    0.57015   0.58936   0.65790   0.70269   0.78677
 Alpha virt. eigenvalues --    0.79810   0.83294   0.83534   0.85434   0.88538

 Mulliken charges:
               1
     1  O   -0.369560
     2  H    0.174823
     3  H    0.195345
     4  O   -0.348743
     5  H    0.128985
     6  H    0.219151
 Sum of Mulliken charges =  -0.00000

 Dipole moment (field-independent basis, Debye):
    X=             -0.7071    Y=             -0.2983    Z=              0.0000  Tot=              0.7674
 Quadrupole moment (field-independent basis, Debye-Ang):
   XX=             -8.7059   YY=             -8.4503   ZZ=            -14.7338
   XY=             -0.3311   XZ=              0.0000   YZ=              0.0000

 078\MP4DQ=-152.5076399\MP4SDQ=-152.5118027\CCSD=-152.5105938\CCSD(T)=-
 Normal termination of Gaussian 16 at Fri Aug 26 12:35:28 2022.
