 Gaussian 16, Revision A.03,
 Gaussian 16:  ES64L-G16RevA.03 25-Dec-2016

 ------------------
 #p CCSD(T)/cc-pVTZ
 ------------------

 ------------
 H2O_H2O_3586
 ------------
 Symbolic Z-matrix:
 Charge =  0 Multiplicity = 1

                         Standard orientation:
 ---------------------------------------------------------------------
 Center     Atomic      Atomic             Coordinates (Angstroms)
 Number     Number       Type             X           Y           Z
 ---------------------------------------------------------------------
      1          8           0        0.037674   -2.689568    0.000000
      2          1           0       -0.762581   -3.259741    0.000000
      3          1           0        0.836560   -3.261658    0.000000
      4          8           0        0.037674    2.717824    0.000000
      5          1           0        0.263397    3.674147    0.000000
      6          1           0       -0.940166    2.621201    0.000000
 ---------------------------------------------------------------------

 SCF Done:  E(RHF) =  -152.106770732     A.U. after   10 cycles
 E2 =    -0.5259549598D+00 EUMP2 =    -0.15263272569215D+03
 CCSD(T)
 CCSD(T)= -0.15265995814D+03

 The electronic state is 1-A'.
 Alpha  occ. eigenvalues --  -20.55229 -20.55005  -1.32525  -1.32298  -0.69933
 Alpha  occ. eigenvalues --   -0.69700  -0.55942  -0.55716  -0.49632  -0.49406
 Alpha virt. eigenvalues --    0.14301   0.14702   0.20412   0.20698   0.54616
 Alpha virt. eigenvalues --    0.54890   0.57495   0.57726   0.67946   0.68899
 Alpha virt. eigenvalues --    0.79246   0.79468   0.80684   0.80933   0.82653

 Mulliken charges:
               1
     1  O   -0.505142
     2  H    0.251244
     3  H    0.253903
     4  O   -0.504871
     5  H    0.250449
     6  H    0.254417
 Sum of Mulliken charges =  -0.00000

 Dipole moment (field-independent basis, Debye):
    X=             -1.2906    Y=             -0.4965    Z=              0.0000  Tot=              1.3828
 Quadrupole moment (field-independent basis, Debye-Ang):
   XX=             -8.6988   YY=              7.7646   ZZ=            -14.7109
   XY=             -2.6606   XZ=              0.0000   YZ=              0.0000

 Normal termination of Gaussian 16 at Sat Aug 27 01:42:08 2022.
