 Gaussian 16, Revision A.03,
 Gaussian 16:  ES64L-G16RevA.03 25-Dec-2016

 ------------------
 #p CCSD(T)/cc-pVTZ
 ------------------

 ------------
 H2O_H2O_3298
 ------------
 Symbolic Z-matrix:
 Charge =  0 Multiplicity = 1

                         Standard orientation:
 ---------------------------------------------------------------------
 Center     Atomic      Atomic             Coordinates (Angstroms)
 Number     Number       Type             X           Y           Z
 ---------------------------------------------------------------------
      1          8           0        0.057094   -2.487505    0.000000
      2          1           0       -0.743578   -3.057092    0.000000
      3          1           0        0.855561   -3.060180    0.000000
      4          8           0        0.057094    2.594040    0.000000
      5          1           0       -0.458907    3.430251    0.000000
      6          1           0       -0.566577    1.834737    0.000000
 ---------------------------------------------------------------------

 SCF Done:  E(RHF) =  -152.107927616     A.U. after   10 cycles
 E2 =    -0.5258992151D+00 EUMP2 =    -0.15263382683139D+03
 CCSD(T)
 CCSD(T)= -0.15266102879D+03

 The electronic state is 1-A'.
 Alpha  occ. eigenvalues --  -20.55839 -20.54838  -1.33135  -1.32138  -0.70541
 Alpha  occ. eigenvalues --   -0.69527  -0.56604  -0.55595  -0.50250  -0.49257
 Alpha virt. eigenvalues --    0.13491   0.15108   0.19957   0.21199   0.53981
 Alpha virt. eigenvalues --    0.54893   0.56987   0.57858   0.66886   0.69536
 Alpha virt. eigenvalues --    0.78638   0.79602   0.79856   0.80310   0.82787

 Mulliken charges:
               1
     1  O   -0.511208
     2  H    0.253538
     3  H    0.257979
     4  O   -0.510862
     5  H    0.250553
     6  H    0.260000
 Sum of Mulliken charges =  -0.00000

 Dipole moment (field-independent basis, Debye):
    X=             -1.9536    Y=             -1.8884    Z=              0.0000  Tot=              2.7171
 Quadrupole moment (field-independent basis, Debye-Ang):
   XX=             -9.8533   YY=              0.7178   ZZ=            -14.7139
   XY=             -5.1209   XZ=              0.0000   YZ=              0.0000

 Normal termination of Gaussian 16 at Fri Aug 26 21:09:47 2022.
