 Gaussian 16, Revision A.03,
 Gaussian 16:  ES64L-G16RevA.03 25-Dec-2016

 ------------------
 #p CCSD(T)/cc-pVTZ
 ------------------

 ------------
 H2O_H2O_3413
 ------------
 Symbolic Z-matrix:
 Charge =  0 Multiplicity = 1

                         Standard orientation:
 ---------------------------------------------------------------------
 Center     Atomic      Atomic             Coordinates (Angstroms)
 Number     Number       Type             X           Y           Z
 ---------------------------------------------------------------------
      1          8           0        0.042968   -2.590776    0.000000
      2          1           0       -0.757412   -3.160775    0.000000
      3          1           0        0.841729   -3.163039    0.000000
      4          8           0        0.042968    2.629566    0.000000
      5          1           0        0.142146    3.607149    0.000000
      6          1           0       -0.913944    2.406345    0.000000
 ---------------------------------------------------------------------

 SCF Done:  E(RHF) =  -152.106845506     A.U. after   10 cycles
 E2 =    -0.5259579872D+00 EUMP2 =    -0.15263280349296D+03
 CCSD(T)
 CCSD(T)= -0.15266003356D+03

 The electronic state is 1-A'.
 Alpha  occ. eigenvalues --  -20.55285 -20.54950  -1.32581  -1.32243  -0.69989
 Alpha  occ. eigenvalues --   -0.69643  -0.56001  -0.55665  -0.49688  -0.49353
 Alpha virt. eigenvalues --    0.14186   0.14812   0.20353   0.20790   0.54540
 Alpha virt. eigenvalues --    0.54944   0.57445   0.57777   0.67672   0.69209
 Alpha virt. eigenvalues --    0.79191   0.79520   0.80611   0.80977   0.82669

 Mulliken charges:
               1
     1  O   -0.505580
     2  H    0.251124
     3  H    0.254474
     4  O   -0.505204
     5  H    0.250002
     6  H    0.255183
 Sum of Mulliken charges =  -0.00000

 Dipole moment (field-independent basis, Debye):
    X=             -1.4707    Y=             -0.6834    Z=              0.0000  Tot=              1.6217
 Quadrupole moment (field-independent basis, Debye-Ang):
   XX=             -8.9669   YY=              6.3970   ZZ=            -14.7111
   XY=             -3.0408   XZ=              0.0000   YZ=              0.0000

 Normal termination of Gaussian 16 at Fri Aug 26 22:07:38 2022.
