 Gaussian 16, Revision A.03,
 Gaussian 16:  ES64L-G16RevA.03 25-Dec-2016

 ------------------
 #p CCSD(T)/cc-pVTZ
 ------------------

 ------------
 H2O_H2O_4825
 ------------
 Symbolic Z-matrix:
 Charge =  0 Multiplicity = 1

                         Standard orientation:
 ---------------------------------------------------------------------
 Center     Atomic      Atomic             Coordinates (Angstroms)
 Number     Number       Type             X           Y           Z
 ---------------------------------------------------------------------
      1          8           0        0.000000   -0.000000    3.369710
      2          1           0        0.000000    0.799571    3.940842
      3          1           0       -0.000000   -0.799571    3.940842
      4          8           0        0.000000   -0.000000   -3.369710
      5          1           0       -0.000000   -0.799571   -3.940842
      6          1           0        0.000000    0.799571   -3.940842
 ---------------------------------------------------------------------

 SCF Done:  E(RHF) =  -152.106931867     A.U. after   10 cycles
 E2 =    -0.5259161955D+00 EUMP2 =    -0.15263284806204D+03
 CCSD(T)
 CCSD(T)= -0.15266007861D+03

 The electronic state is 1-AG.
 Alpha  occ. eigenvalues --  -20.55244 -20.55244  -1.32540  -1.32540  -0.69947
 Alpha  occ. eigenvalues --   -0.69947  -0.55965  -0.55965  -0.49648  -0.49648
 Alpha virt. eigenvalues --    0.14390   0.14399   0.20442   0.20447   0.54621
 Alpha virt. eigenvalues --    0.54623   0.57496   0.57498   0.68255   0.68268
 Alpha virt. eigenvalues --    0.79231   0.79231   0.80672   0.80674   0.82598

 Mulliken charges:
               1
     1  O   -0.506053
     2  H    0.253026
     3  H    0.253026
     4  O   -0.506053
     5  H    0.253026
     6  H    0.253026
 Sum of Mulliken charges =   0.00000

 Dipole moment (field-independent basis, Debye):
    X=             -0.0000    Y=              0.0000    Z=             -0.0000  Tot=              0.0000
 Quadrupole moment (field-independent basis, Debye-Ang):
   XX=            -14.7108   YY=             -7.8010   ZZ=             14.9218
   XY=              0.0000   XZ=              0.0000   YZ=             -0.0000

 1\MP4DQ=-152.6419748\MP4SDQ=-152.6450338\CCSD=-152.6444458\CCSD(T)=-15
 Normal termination of Gaussian 16 at Sat Aug 27 09:32:50 2022.
