 Gaussian 16, Revision A.03,
 Gaussian 16:  ES64L-G16RevA.03 25-Dec-2016

 ------------------
 #p CCSD(T)/cc-pVTZ
 ------------------

 ------------
 H2O_H2O_1381
 ------------
 Symbolic Z-matrix:
 Charge =  0 Multiplicity = 1

                         Standard orientation:
 ---------------------------------------------------------------------
 Center     Atomic      Atomic             Coordinates (Angstroms)
 Number     Number       Type             X           Y           Z
 ---------------------------------------------------------------------
      1          8           0        0.021862   -1.530180    0.000000
      2          1           0       -0.778409   -2.100331    0.000000
      3          1           0        0.820732   -2.102292    0.000000
      4          8           0        0.021862    1.538821    0.000000
      5          1           0        0.543028    2.371823    0.000000
      6          1           0       -0.935136    1.761670    0.000000
 ---------------------------------------------------------------------

 SCF Done:  E(RHF) =  -152.102334958     A.U. after   11 cycles
 E2 =    -0.5272597211D+00 EUMP2 =    -0.15262959467929D+03
 CCSD(T)
 CCSD(T)= -0.15265687147D+03

 The electronic state is 1-A'.
 Alpha  occ. eigenvalues --  -20.54090 -20.53885  -1.31429  -1.31136  -0.68849
 Alpha  occ. eigenvalues --   -0.68575  -0.55593  -0.53333  -0.48601  -0.48132
 Alpha virt. eigenvalues --    0.14262   0.16631   0.20513   0.21910   0.52252
 Alpha virt. eigenvalues --    0.58259   0.58451   0.59055   0.65439   0.76698
 Alpha virt. eigenvalues --    0.77863   0.78550   0.79087   0.82474   0.85948

 Mulliken charges:
               1
     1  O   -0.476353
     2  H    0.234871
     3  H    0.241758
     4  O   -0.474227
     5  H    0.233443
     6  H    0.240508
 Sum of Mulliken charges =   0.00000

 Dipole moment (field-independent basis, Debye):
    X=             -0.7171    Y=             -0.1630    Z=              0.0000  Tot=              0.7354
 Quadrupole moment (field-independent basis, Debye-Ang):
   XX=             -8.1836   YY=             -0.2860   ZZ=            -14.7108
   XY=             -0.5565   XZ=              0.0000   YZ=              0.0000

 Normal termination of Gaussian 16 at Sat Aug 27 04:23:08 2022.
