 Gaussian 16, Revision A.03,
 Gaussian 16:  ES64L-G16RevA.03 25-Dec-2016

 ------------------
 #p CCSD(T)/cc-pVTZ
 ------------------

 ------------
 H2O_H2O_4032
 ------------
 Symbolic Z-matrix:
 Charge =  0 Multiplicity = 1

                         Standard orientation:
 ---------------------------------------------------------------------
 Center     Atomic      Atomic             Coordinates (Angstroms)
 Number     Number       Type             X           Y           Z
 ---------------------------------------------------------------------
      1          8           0        0.025265   -2.937863    0.000000
      2          1           0       -0.774728   -3.508404    0.000000
      3          1           0        0.824414   -3.509585    0.000000
      4          8           0        0.025265    2.949606    0.000000
      5          1           0        0.490412    3.815136    0.000000
      6          1           0       -0.944337    3.108913    0.000000
 ---------------------------------------------------------------------

 SCF Done:  E(RHF) =  -152.106768201     A.U. after   10 cycles
 E2 =    -0.5259414702D+00 EUMP2 =    -0.15263270967169D+03
 CCSD(T)
 CCSD(T)= -0.15265994304D+03

 The electronic state is 1-A'.
 Alpha  occ. eigenvalues --  -20.55190 -20.55112  -1.32486  -1.32407  -0.69894
 Alpha  occ. eigenvalues --   -0.69813  -0.55904  -0.55825  -0.49593  -0.49514
 Alpha virt. eigenvalues --    0.14411   0.14533   0.20469   0.20562   0.54673
 Alpha virt. eigenvalues --    0.54764   0.57537   0.57618   0.68255   0.68498
 Alpha virt. eigenvalues --    0.79286   0.79363   0.80730   0.80817   0.82662

 Mulliken charges:
               1
     1  O   -0.505101
     2  H    0.251850
     3  H    0.253251
     4  O   -0.505010
     5  H    0.251505
     6  H    0.253504
 Sum of Mulliken charges =  -0.00000

 Dipole moment (field-independent basis, Debye):
    X=             -0.8670    Y=             -0.2054    Z=              0.0000  Tot=              0.8910
 Quadrupole moment (field-independent basis, Debye-Ang):
   XX=             -8.2065   YY=             10.6884   ZZ=            -14.7107
   XY=             -1.8587   XZ=              0.0000   YZ=              0.0000

 Normal termination of Gaussian 16 at Sat Aug 27 04:59:14 2022.
