 Gaussian 16, Revision A.03,
 Gaussian 16:  ES64L-G16RevA.03 25-Dec-2016

 ------------------
 #p CCSD(T)/cc-pVTZ
 ------------------

 -----------
 H2O_H2O_257
 -----------
 Symbolic Z-matrix:
 Charge =  0 Multiplicity = 1

                         Standard orientation:
 ---------------------------------------------------------------------
 Center     Atomic      Atomic             Coordinates (Angstroms)
 Number     Number       Type             X           Y           Z
 ---------------------------------------------------------------------
      1          8           0        0.025274   -0.930222    0.000000
      2          1           0       -0.775621   -1.499495    0.000000
      3          1           0        0.823516   -1.503210    0.000000
      4          8           0        0.025274    0.941885    0.000000
      5          1           0        0.491792    1.806677    0.000000
      6          1           0       -0.944074    1.102728    0.000000
 ---------------------------------------------------------------------

 SCF Done:  E(RHF) =  -152.024911207     A.U. after   11 cycles
 E2 =    -0.5387612347D+00 EUMP2 =    -0.15256367244173D+03
 CCSD(T)
 CCSD(T)= -0.15259005531D+03

 The electronic state is 1-A'.
 Alpha  occ. eigenvalues --  -20.51882 -20.51525  -1.33197  -1.27953  -0.69564
 Alpha  occ. eigenvalues --   -0.66905  -0.61634  -0.50157  -0.44374  -0.41438
 Alpha virt. eigenvalues --    0.14515   0.18578   0.20222   0.23220   0.52041
 Alpha virt. eigenvalues --    0.57992   0.58873   0.65534   0.69966   0.78177
 Alpha virt. eigenvalues --    0.79221   0.83034   0.83907   0.86136   0.88092

 Mulliken charges:
               1
     1  O   -0.418675
     2  H    0.199967
     3  H    0.216908
     4  O   -0.392951
     5  H    0.167863
     6  H    0.226887
 Sum of Mulliken charges =  -0.00000

 Dipole moment (field-independent basis, Debye):
    X=             -0.7199    Y=             -0.2587    Z=              0.0000  Tot=              0.7650
 Quadrupole moment (field-independent basis, Debye-Ang):
   XX=             -8.5633   YY=             -6.6867   ZZ=            -14.7392
   XY=             -0.2817   XZ=              0.0000   YZ=              0.0000

 Normal termination of Gaussian 16 at Fri Aug 26 14:35:46 2022.
