 Gaussian 16, Revision A.03,
 Gaussian 16:  ES64L-G16RevA.03 25-Dec-2016

 ------------------
 #p CCSD(T)/cc-pVTZ
 ------------------

 -----------
 H2O_H2O_162
 -----------
 Symbolic Z-matrix:
 Charge =  0 Multiplicity = 1

                         Standard orientation:
 ---------------------------------------------------------------------
 Center     Atomic      Atomic             Coordinates (Angstroms)
 Number     Number       Type             X           Y           Z
 ---------------------------------------------------------------------
      1          8           0        0.040451   -0.865373    0.000000
      2          1           0       -0.761365   -1.433348    0.000000
      3          1           0        0.837764   -1.439652    0.000000
      4          8           0        0.040451    0.898510    0.000000
      5          1           0        0.205801    1.867099    0.000000
      6          1           0       -0.929412    0.740801    0.000000
 ---------------------------------------------------------------------

 SCF Done:  E(RHF) =  -151.995155539     A.U. after   11 cycles
 E2 =    -0.5427288941D+00 EUMP2 =    -0.15253788443341D+03
 CCSD(T)
 CCSD(T)= -0.15256378490D+03

 The electronic state is 1-A'.
 Alpha  occ. eigenvalues --  -20.52551 -20.51398  -1.35366  -1.27372  -0.71946
 Alpha  occ. eigenvalues --   -0.68605  -0.59663  -0.51714  -0.43980  -0.40546
 Alpha virt. eigenvalues --    0.14156   0.18790   0.19862   0.23731   0.53493
 Alpha virt. eigenvalues --    0.56445   0.58596   0.65044   0.72539   0.77511
 Alpha virt. eigenvalues --    0.80416   0.82195   0.82884   0.84621   0.88776

 Mulliken charges:
               1
     1  O   -0.385643
     2  H    0.181048
     3  H    0.206091
     4  O   -0.367251
     5  H    0.134968
     6  H    0.230787
 Sum of Mulliken charges =  -0.00000

 Dipole moment (field-independent basis, Debye):
    X=             -1.1105    Y=             -0.7400    Z=              0.0000  Tot=              1.3345
 Quadrupole moment (field-independent basis, Debye-Ang):
   XX=             -9.1091   YY=             -7.5906   ZZ=            -14.6902
   XY=             -0.5848   XZ=              0.0000   YZ=              0.0000

 518502\MP4DQ=-152.5433032\MP4SDQ=-152.547167\CCSD=-152.546172\CCSD(T)=
 Normal termination of Gaussian 16 at Fri Aug 26 13:30:17 2022.
