 Gaussian 16, Revision A.03,
 Gaussian 16:  ES64L-G16RevA.03 25-Dec-2016

 ------------------
 #p CCSD(T)/cc-pVTZ
 ------------------

 ------------
 H2O_H2O_4354
 ------------
 Symbolic Z-matrix:
 Charge =  0 Multiplicity = 1

                         Standard orientation:
 ---------------------------------------------------------------------
 Center     Atomic      Atomic             Coordinates (Angstroms)
 Number     Number       Type             X           Y           Z
 ---------------------------------------------------------------------
      1          8           0        0.014783   -3.114980    0.000000
      2          1           0       -0.785021   -3.685785    0.000000
      3          1           0        0.814121   -3.686438    0.000000
      4          8           0        0.014783    3.118860    0.000000
      5          1           0        0.639599    3.877221    0.000000
      6          1           0       -0.905223    3.463962    0.000000
 ---------------------------------------------------------------------

 SCF Done:  E(RHF) =  -152.106816963     A.U. after   10 cycles
 E2 =    -0.5259315249D+00 EUMP2 =    -0.15263274848814D+03
 CCSD(T)
 CCSD(T)= -0.15265998115D+03

 The electronic state is 1-A'.
 Alpha  occ. eigenvalues --  -20.55196 -20.55173  -1.32492  -1.32469  -0.69899
 Alpha  occ. eigenvalues --   -0.69875  -0.55912  -0.55889  -0.49599  -0.49576
 Alpha virt. eigenvalues --    0.14423   0.14464   0.20474   0.20503   0.54669
 Alpha virt. eigenvalues --    0.54696   0.57535   0.57560   0.68297   0.68375
 Alpha virt. eigenvalues --    0.79280   0.79303   0.80724   0.80749   0.82652

 Mulliken charges:
               1
     1  O   -0.505380
     2  H    0.252342
     3  H    0.253038
     4  O   -0.505356
     5  H    0.252187
     6  H    0.253168
 Sum of Mulliken charges =  -0.00000

 Dipole moment (field-independent basis, Debye):
    X=             -0.5078    Y=             -0.0677    Z=              0.0000  Tot=              0.5123
 Quadrupole moment (field-independent basis, Debye-Ang):
   XX=             -7.9409   YY=             12.6097   ZZ=            -14.7107
   XY=             -1.1380   XZ=              0.0000   YZ=              0.0000

 Normal termination of Gaussian 16 at Sat Aug 27 06:50:28 2022.
