 Gaussian 16, Revision A.03,
 Gaussian 16:  ES64L-G16RevA.03 25-Dec-2016

 ------------------
 #p CCSD(T)/cc-pVTZ
 ------------------

 ------------
 H2O_H2O_3927
 ------------
 Symbolic Z-matrix:
 Charge =  0 Multiplicity = 1

                         Standard orientation:
 ---------------------------------------------------------------------
 Center     Atomic      Atomic             Coordinates (Angstroms)
 Number     Number       Type             X           Y           Z
 ---------------------------------------------------------------------
      1          8           0        0.007455   -2.890528    0.000000
      2          1           0       -0.792243   -3.461482    0.000000
      3          1           0        0.806899   -3.461837    0.000000
      4          8           0        0.007455    2.891502    0.000000
      5          1           0        0.725787    3.561953    0.000000
      6          1           0       -0.859722    3.353575    0.000000
 ---------------------------------------------------------------------

 SCF Done:  E(RHF) =  -152.106620877     A.U. after   10 cycles
 E2 =    -0.5259556868D+00 EUMP2 =    -0.15263257656430D+03
 CCSD(T)
 CCSD(T)= -0.15265981298D+03

 The electronic state is 1-A'.
 Alpha  occ. eigenvalues --  -20.55105 -20.55098  -1.32400  -1.32393  -0.69808
 Alpha  occ. eigenvalues --   -0.69801  -0.55810  -0.55803  -0.49505  -0.49499
 Alpha virt. eigenvalues --    0.14466   0.14555   0.20527   0.20563   0.54753
 Alpha virt. eigenvalues --    0.54781   0.57607   0.57625   0.68301   0.68590
 Alpha virt. eigenvalues --    0.79373   0.79379   0.80817   0.80831   0.82747

 Mulliken charges:
               1
     1  O   -0.504226
     2  H    0.251896
     3  H    0.252330
     4  O   -0.504217
     5  H    0.251813
     6  H    0.252405
 Sum of Mulliken charges =   0.00000

 Dipole moment (field-independent basis, Debye):
    X=             -0.2557    Y=             -0.0170    Z=              0.0000  Tot=              0.2563
 Quadrupole moment (field-independent basis, Debye-Ang):
   XX=             -7.8413   YY=             11.0240   ZZ=            -14.7104
   XY=             -0.5098   XZ=              0.0000   YZ=              0.0000

 Normal termination of Gaussian 16 at Sat Aug 27 04:21:25 2022.
