 Gaussian 16, Revision A.03,
 Gaussian 16:  ES64L-G16RevA.03 25-Dec-2016

 ------------------
 #p CCSD(T)/cc-pVTZ
 ------------------

 -----------
 H2O_H2O_990
 -----------
 Symbolic Z-matrix:
 Charge =  0 Multiplicity = 1

                         Standard orientation:
 ---------------------------------------------------------------------
 Center     Atomic      Atomic             Coordinates (Angstroms)
 Number     Number       Type             X           Y           Z
 ---------------------------------------------------------------------
      1          8           0        0.047566   -1.294725    0.000000
      2          1           0       -0.753770   -1.863378    0.000000
      3          1           0        0.845365   -1.868331    0.000000
      4          8           0        0.047566    1.345196    0.000000
      5          1           0        0.019947    2.327410    0.000000
      6          1           0       -0.872603    1.000529    0.000000
 ---------------------------------------------------------------------

 SCF Done:  E(RHF) =  -152.100996325     A.U. after   11 cycles
 E2 =    -0.5285550437D+00 EUMP2 =    -0.15262955136856D+03
 CCSD(T)
 CCSD(T)= -0.15265674503D+03

 The electronic state is 1-A'.
 Alpha  occ. eigenvalues --  -20.54825 -20.53155  -1.32330  -1.30392  -0.69737
 Alpha  occ. eigenvalues --   -0.68012  -0.56205  -0.52767  -0.49477  -0.47407
 Alpha virt. eigenvalues --    0.13822   0.17307   0.20082   0.23433   0.53415
 Alpha virt. eigenvalues --    0.57626   0.58301   0.59114   0.70338   0.75663
 Alpha virt. eigenvalues --    0.76889   0.77996   0.82843   0.83016   0.85238

 Mulliken charges:
               1
     1  O   -0.474478
     2  H    0.231301
     3  H    0.248675
     4  O   -0.472526
     5  H    0.219137
     6  H    0.247890
 Sum of Mulliken charges =  -0.00000

 Dipole moment (field-independent basis, Debye):
    X=             -1.5074    Y=             -0.9882    Z=              0.0000  Tot=              1.8025
 Quadrupole moment (field-independent basis, Debye-Ang):
   XX=             -9.2965   YY=             -2.9625   ZZ=            -14.7226
   XY=             -1.4996   XZ=              0.0000   YZ=              0.0000

 Normal termination of Gaussian 16 at Sat Aug 27 01:12:59 2022.
