 Gaussian 16, Revision A.03,
 Gaussian 16:  ES64L-G16RevA.03 25-Dec-2016

 -----------------------------------------------
 #p ROCCSD(T,MaxCyc=200)/cc-pVTZ SCF(MaxCyc=200)
 -----------------------------------------------

 --
 O2
 --
 Symbolic Z-matrix:
 Charge = -1 Multiplicity = 2

                         Standard orientation:
 ---------------------------------------------------------------------
 Center     Atomic      Atomic             Coordinates (Angstroms)
 Number     Number       Type             X           Y           Z
 ---------------------------------------------------------------------
      1          8           0        0.000000    0.000000    0.580000
      2          8           0        0.000000    0.000000   -0.580000
 ---------------------------------------------------------------------

 SCF Done:  E(ROHF) =  -149.596480785     A.U. after    9 cycles
 E2 =    -0.4607852540D+00 EUMP2 =    -0.15005726603865D+03
 CCSD(T)
 CCSD(T)= -0.15007213966D+03

 Unable to determine electronic state:  partially filled degenerate orbitals.
 Alpha  occ. eigenvalues --  -20.24698 -20.24620  -1.27757  -0.70836  -0.39230
 Alpha  occ. eigenvalues --   -0.35684  -0.33708  -0.05908  -0.01864
 Alpha virt. eigenvalues --    0.74141   1.02770   1.04946   1.04999   1.13462
 Alpha virt. eigenvalues --    1.15744   1.20482   1.25470   1.77909   1.84412
 Alpha virt. eigenvalues --    1.84419   1.96414   1.99450   2.29284   2.29331

 Mulliken charges and spin densities:
               1          2
     1  O   -0.500000   0.500000
     2  O   -0.500000   0.500000
 Sum of Mulliken charges =  -1.00000   1.00000

 Dipole moment (field-independent basis, Debye):
    X=             -0.0000    Y=             -0.0000    Z=              0.0000  Tot=              0.0000
 Quadrupole moment (field-independent basis, Debye-Ang):
   XX=            -12.5550   YY=            -11.5268   ZZ=            -15.0098
   XY=              0.0000   XZ=              0.0000   YZ=              0.0000

 50.0581538\CCSD=-150.0569582\CCSD(T)=-150.0721397\RMSD=3.399e-09\PG=D*
 Normal termination of Gaussian 16 at Wed Feb 21 08:58:12 2024.
