 Gaussian 16, Revision A.03,
 Gaussian 16:  ES64L-G16RevA.03 25-Dec-2016

 -----------------------------------------------
 #p ROCCSD(T,MaxCyc=200)/cc-pVTZ SCF(MaxCyc=200)
 -----------------------------------------------

 --------
 O2_O2_37
 --------
 Symbolic Z-matrix:
 Charge = -1 Multiplicity = 2

                         Standard orientation:
 ---------------------------------------------------------------------
 Center     Atomic      Atomic             Coordinates (Angstroms)
 Number     Number       Type             X           Y           Z
 ---------------------------------------------------------------------
      1          8           0        0.615183   -1.645183    0.000000
      2          8           0       -0.205061   -0.824939    0.000000
      3          8           0       -0.205061    0.655061   -0.000000
      4          8           0       -0.205061    1.815061   -0.000000
 ---------------------------------------------------------------------

 SCF Done:  E(ROHF) =  -299.068242430     A.U. after   21 cycles
 E2 =    -0.9497080193D+00 EUMP2 =    -0.30001795044901D+03
 CCSD(T)
 CCSD(T)= -0.30005842469D+03

 The electronic state is 2-A".
 Alpha  occ. eigenvalues --  -20.48691 -20.37281 -20.33925 -20.33005  -1.43913
 Alpha  occ. eigenvalues --   -1.36007  -0.95520  -0.72355  -0.54265  -0.52406
 Alpha  occ. eigenvalues --   -0.48406  -0.46516  -0.41210  -0.25384  -0.20032
 Alpha  occ. eigenvalues --   -0.10993  -0.10098
 Alpha virt. eigenvalues --    0.35247   0.70873   0.75310   0.92491   0.93387
 Alpha virt. eigenvalues --    0.95000   0.99259   1.01191   1.03426   1.05144
 Alpha virt. eigenvalues --    1.07475   1.12942   1.14462   1.19670   1.26007

 Mulliken charges and spin densities:
               1          2
     1  O   -0.384845   0.004141
     2  O    0.073013   0.012191
     3  O   -0.270065   0.445027
     4  O   -0.418103   0.538640
 Sum of Mulliken charges =  -1.00000   1.00000

 Dipole moment (field-independent basis, Debye):
    X=             -0.3255    Y=             -1.4854    Z=              0.0000  Tot=              1.5206
 Quadrupole moment (field-independent basis, Debye-Ang):
   XX=            -23.6432   YY=            -36.4023   ZZ=            -21.9861
   XY=              3.5611   XZ=              0.0000   YZ=              0.0000

 6647\CCSD=-300.0133201\CCSD(T)=-300.0584247\RMSD=6.474e-09\PG=CS [SG(O
 Normal termination of Gaussian 16 at Sat Feb 17 21:12:09 2024.
