 Gaussian 16, Revision A.03,
 Gaussian 16:  ES64L-G16RevA.03 25-Dec-2016

 -----------------------------------------------
 #p ROCCSD(T,MaxCyc=200)/cc-pVTZ SCF(MaxCyc=200)
 -----------------------------------------------

 ---------
 O2_O2_122
 ---------
 Symbolic Z-matrix:
 Charge = -1 Multiplicity = 2

                         Standard orientation:
 ---------------------------------------------------------------------
 Center     Atomic      Atomic             Coordinates (Angstroms)
 Number     Number       Type             X           Y           Z
 ---------------------------------------------------------------------
      1          8           0       -0.870000   -1.590000    0.000000
      2          8           0        0.290000   -1.590000    0.000000
      3          8           0        0.290000    1.010000    0.000000
      4          8           0        0.290000    2.170000    0.000000
 ---------------------------------------------------------------------

 SCF Done:  E(ROHF) =  -299.174902407     A.U. after   15 cycles
 E2 =    -0.9572050786D+00 EUMP2 =    -0.30013210748542D+03
 CCSD(T)
 CCSD(T)= -0.30016038850D+03

 The electronic state is 2-A'.
 Alpha  occ. eigenvalues --  -20.42942 -20.41477 -20.40556 -20.40440  -1.42018
 Alpha  occ. eigenvalues --   -1.40349  -0.82748  -0.81358  -0.50447  -0.48756
 Alpha  occ. eigenvalues --   -0.48611  -0.46279  -0.45827  -0.43453  -0.16510
 Alpha  occ. eigenvalues --   -0.14961  -0.01677
 Alpha virt. eigenvalues --    0.17586   0.65826   0.69180   0.90657   0.91385
 Alpha virt. eigenvalues --    0.93028   0.96552   0.96842   1.00747   1.01682
 Alpha virt. eigenvalues --    1.05648   1.06727   1.09034   1.10228   1.13227

 Mulliken charges and spin densities:
               1          2
     1  O   -0.281455   0.245513
     2  O   -0.241092   0.277031
     3  O   -0.179953   0.252329
     4  O   -0.297500   0.225127
 Sum of Mulliken charges =  -1.00000   1.00000

 Dipole moment (field-independent basis, Debye):
    X=              0.1586    Y=              0.0905    Z=              0.0000  Tot=              0.1826
 Quadrupole moment (field-independent basis, Debye-Ang):
   XX=            -23.7151   YY=            -36.8832   ZZ=            -23.2030
   XY=             -2.4913   XZ=              0.0000   YZ=              0.0000

 16\CCSD(T)=-300.1603885\RMSD=7.101e-09\PG=CS [SG(O4)]\\@
 Normal termination of Gaussian 16 at Sun Feb 18 00:05:21 2024.
