 Gaussian 16, Revision A.03,
 Gaussian 16:  ES64L-G16RevA.03 25-Dec-2016

 -----------------------------------------------
 #p ROCCSD(T,MaxCyc=200)/cc-pVTZ SCF(MaxCyc=200)
 -----------------------------------------------

 ---------
 O2_O2_113
 ---------
 Symbolic Z-matrix:
 Charge = -1 Multiplicity = 2

                         Standard orientation:
 ---------------------------------------------------------------------
 Center     Atomic      Atomic             Coordinates (Angstroms)
 Number     Number       Type             X           Y           Z
 ---------------------------------------------------------------------
      1          8           0       -0.870000   -1.530000    0.000000
      2          8           0        0.290000   -1.530000    0.000000
      3          8           0        0.290000    0.950000    0.000000
      4          8           0        0.290000    2.110000    0.000000
 ---------------------------------------------------------------------

 SCF Done:  E(ROHF) =  -299.175074905     A.U. after   18 cycles
 E2 =    -0.9573419422D+00 EUMP2 =    -0.30013241684768D+03
 CCSD(T)
 CCSD(T)= -0.30016108797D+03

 The electronic state is 2-A'.
 Alpha  occ. eigenvalues --  -20.42892 -20.41301 -20.40155 -20.40024  -1.41914
 Alpha  occ. eigenvalues --   -1.39978  -0.82714  -0.80988  -0.50359  -0.48878
 Alpha  occ. eigenvalues --   -0.48367  -0.45999  -0.45591  -0.42687  -0.16409
 Alpha  occ. eigenvalues --   -0.14576  -0.01967
 Alpha virt. eigenvalues --    0.18424   0.66183   0.69801   0.91284   0.91689
 Alpha virt. eigenvalues --    0.94252   0.96775   0.97180   1.00301   1.01618
 Alpha virt. eigenvalues --    1.05959   1.07165   1.10118   1.10957   1.13342

 Mulliken charges and spin densities:
               1          2
     1  O   -0.286557   0.243926
     2  O   -0.240952   0.283037
     3  O   -0.170785   0.250086
     4  O   -0.301705   0.222951
 Sum of Mulliken charges =  -1.00000   1.00000

 Dipole moment (field-independent basis, Debye):
    X=              0.1893    Y=              0.1330    Z=              0.0000  Tot=              0.2314
 Quadrupole moment (field-independent basis, Debye-Ang):
   XX=            -23.7426   YY=            -36.0585   ZZ=            -23.2040
   XY=             -2.4250   XZ=              0.0000   YZ=              0.0000

 888\CCSD(T)=-300.161088\RMSD=1.851e-09\PG=CS [SG(O4)]\\@
 Normal termination of Gaussian 16 at Sat Feb 17 23:49:25 2024.
