 Gaussian 16, Revision A.03,
 Gaussian 16:  ES64L-G16RevA.03 25-Dec-2016

 -----------------------------------------------
 #p ROCCSD(T,MaxCyc=200)/cc-pVTZ SCF(MaxCyc=200)
 -----------------------------------------------

 --------
 O2_O2_45
 --------
 Symbolic Z-matrix:
 Charge = -1 Multiplicity = 2

                         Standard orientation:
 ---------------------------------------------------------------------
 Center     Atomic      Atomic             Coordinates (Angstroms)
 Number     Number       Type             X           Y           Z
 ---------------------------------------------------------------------
      1          8           0        0.000000    0.000000    1.960000
      2          8           0        0.000000    0.000000    0.800000
      3          8           0        0.000000    0.000000   -0.800000
      4          8           0        0.000000    0.000000   -1.960000
 ---------------------------------------------------------------------

 SCF Done:  E(ROHF) =  -299.018168094     A.U. after   12 cycles
 E2 =    -0.1151312237D+01 EUMP2 =    -0.30016948033014D+03
 CCSD(T)
 CCSD(T)= -0.30012919744D+03

 Unable to determine electronic state:  an orbital has unidentified symmetry.
 Alpha  occ. eigenvalues --  -20.45578 -20.45573 -20.36914 -20.36914  -1.43074
 Alpha  occ. eigenvalues --   -1.40315  -0.93667  -0.74706  -0.54118  -0.53787
 Alpha  occ. eigenvalues --   -0.49451  -0.46870  -0.40658  -0.31920  -0.19922
 Alpha  occ. eigenvalues --   -0.13427  -0.04755
 Alpha virt. eigenvalues --    0.25905   0.71387   0.72224   0.91653   0.93547
 Alpha virt. eigenvalues --    0.97912   0.98808   0.99044   1.03470   1.05492
 Alpha virt. eigenvalues --    1.08145   1.12177   1.16218   1.22817   1.25299

 Mulliken charges and spin densities:
               1          2
     1  O   -0.428795   0.178416
     2  O   -0.071205   0.321584
     3  O   -0.071205   0.321584
     4  O   -0.428795   0.178416
 Sum of Mulliken charges =  -1.00000   1.00000

 Dipole moment (field-independent basis, Debye):
    X=             -0.0000    Y=              0.0000    Z=             -0.0000  Tot=              0.0000
 Quadrupole moment (field-independent basis, Debye-Ang):
   XX=            -22.4415   YY=            -21.8869   ZZ=            -40.5193
   XY=              0.0000   XZ=              0.0000   YZ=              0.0000

 81\PMP2-0=-300.1694803\MP4SDQ=-300.0395025\CCSD=-300.0532126\CCSD(T)=-
 Normal termination of Gaussian 16 at Sat Feb 17 21:26:54 2024.
