 Gaussian 16, Revision A.03,
 Gaussian 16:  ES64L-G16RevA.03 25-Dec-2016

 -----------------------------------------------
 #p ROCCSD(T,MaxCyc=200)/cc-pVTZ SCF(MaxCyc=200)
 -----------------------------------------------

 ---------
 O2_O2_198
 ---------
 Symbolic Z-matrix:
 Charge = -1 Multiplicity = 2

                         Standard orientation:
 ---------------------------------------------------------------------
 Center     Atomic      Atomic             Coordinates (Angstroms)
 Number     Number       Type             X           Y           Z
 ---------------------------------------------------------------------
      1          8           0        0.000000    0.000000    2.980000
      2          8           0        0.000000    0.000000    1.820000
      3          8           0        0.000000    0.000000   -1.820000
      4          8           0        0.000000    0.000000   -2.980000
 ---------------------------------------------------------------------

 SCF Done:  E(ROHF) =  -299.164799062     A.U. after   12 cycles
 E2 =    -0.9589177370D+00 EUMP2 =    -0.30012371679854D+03
 CCSD(T)
 CCSD(T)= -0.30014827660D+03

 Unable to determine electronic state:  an orbital has unidentified symmetry.
 Alpha  occ. eigenvalues --  -20.43560 -20.43559 -20.42985 -20.42985  -1.43220
 Alpha  occ. eigenvalues --   -1.43206  -0.84089  -0.83880  -0.51602  -0.51573
 Alpha  occ. eigenvalues --   -0.48919  -0.48538  -0.47704  -0.47315  -0.17765
 Alpha  occ. eigenvalues --   -0.17634  -0.00201
 Alpha virt. eigenvalues --    0.11464   0.58956   0.70163   0.89246   0.91913
 Alpha virt. eigenvalues --    0.92638   0.92711   0.93429   0.99923   1.03176
 Alpha virt. eigenvalues --    1.03593   1.04451   1.05936   1.06269   1.11209

 Mulliken charges and spin densities:
               1          2
     1  O   -0.280379   0.240478
     2  O   -0.219621   0.259522
     3  O   -0.219621   0.259522
     4  O   -0.280379   0.240478
 Sum of Mulliken charges =  -1.00000   1.00000

 Dipole moment (field-independent basis, Debye):
    X=             -0.0000    Y=              0.0000    Z=              0.0000  Tot=              0.0000
 Quadrupole moment (field-independent basis, Debye-Ang):
   XX=            -20.6871   YY=            -23.1895   ZZ=            -55.3831
   XY=              0.0000   XZ=              0.0000   YZ=              0.0000

 991\PMP2-0=-300.1237168\MP4SDQ=-300.1102409\CCSD=-300.1071488\CCSD(T)=
 Normal termination of Gaussian 16 at Sun Feb 18 02:21:57 2024.
