 Gaussian 16, Revision A.03,
 Gaussian 16:  ES64L-G16RevA.03 25-Dec-2016

 -----------------------------------------------
 #p ROCCSD(T,MaxCyc=200)/cc-pVTZ SCF(MaxCyc=200)
 -----------------------------------------------

 --------
 O2_O2_48
 --------
 Symbolic Z-matrix:
 Charge = -1 Multiplicity = 2

                         Standard orientation:
 ---------------------------------------------------------------------
 Center     Atomic      Atomic             Coordinates (Angstroms)
 Number     Number       Type             X           Y           Z
 ---------------------------------------------------------------------
      1          8           0        0.000000    0.000000    1.980000
      2          8           0        0.000000    0.000000    0.820000
      3          8           0        0.000000    0.000000   -0.820000
      4          8           0        0.000000    0.000000   -1.980000
 ---------------------------------------------------------------------

 SCF Done:  E(ROHF) =  -299.028022797     A.U. after   12 cycles
 E2 =    -0.1158383944D+01 EUMP2 =    -0.30018640674119D+03
 CCSD(T)
 CCSD(T)= -0.30014203190D+03

 Unable to determine electronic state:  an orbital has unidentified symmetry.
 Alpha  occ. eigenvalues --  -20.45610 -20.45605 -20.37340 -20.37340  -1.42944
 Alpha  occ. eigenvalues --   -1.40534  -0.92530  -0.75307  -0.53870  -0.53581
 Alpha  occ. eigenvalues --   -0.49715  -0.46643  -0.40958  -0.33365  -0.19836
 Alpha  occ. eigenvalues --   -0.13807  -0.04412
 Alpha virt. eigenvalues --    0.25274   0.71308   0.72115   0.91540   0.93443
 Alpha virt. eigenvalues --    0.97705   0.98846   0.99216   1.03985   1.05056
 Alpha virt. eigenvalues --    1.07727   1.12234   1.15330   1.22553   1.25007

 Mulliken charges and spin densities:
               1          2
     1  O   -0.422216   0.180718
     2  O   -0.077784   0.319282
     3  O   -0.077784   0.319282
     4  O   -0.422216   0.180718
 Sum of Mulliken charges =  -1.00000   1.00000

 Dipole moment (field-independent basis, Debye):
    X=             -0.0000    Y=              0.0000    Z=              0.0000  Tot=              0.0000
 Quadrupole moment (field-independent basis, Debye-Ang):
   XX=            -22.4625   YY=            -21.9087   ZZ=            -40.5247
   XY=              0.0000   XZ=              0.0000   YZ=              0.0000

 28\PMP2-0=-300.1864067\MP4SDQ=-300.0464413\CCSD=-300.0646736\CCSD(T)=-
 Normal termination of Gaussian 16 at Sat Feb 17 21:32:45 2024.
