 Gaussian 16, Revision A.03,
 Gaussian 16:  ES64L-G16RevA.03 25-Dec-2016

 -----------------------------------------------
 #p ROCCSD(T,MaxCyc=200)/cc-pVTZ SCF(MaxCyc=200)
 -----------------------------------------------

 ---------
 O2_O2_291
 ---------
 Symbolic Z-matrix:
 Charge = -1 Multiplicity = 2

                         Standard orientation:
 ---------------------------------------------------------------------
 Center     Atomic      Atomic             Coordinates (Angstroms)
 Number     Number       Type             X           Y           Z
 ---------------------------------------------------------------------
      1          8           0        0.000000    0.000000    3.600000
      2          8           0        0.000000    0.000000    2.440000
      3          8           0        0.000000    0.000000   -2.440000
      4          8           0        0.000000    0.000000   -3.600000
 ---------------------------------------------------------------------

 SCF Done:  E(ROHF) =  -299.163751114     A.U. after   13 cycles
 E2 =    -0.9599466872D+00 EUMP2 =    -0.30012369780166D+03
 CCSD(T)
 CCSD(T)= -0.30014684498D+03

 Unable to determine electronic state:  an orbital has unidentified symmetry.
 Alpha  occ. eigenvalues --  -20.44594 -20.44594 -20.44250 -20.44250  -1.44357
 Alpha  occ. eigenvalues --   -1.44355  -0.85200  -0.85160  -0.52732  -0.52731
 Alpha  occ. eigenvalues --   -0.49956  -0.49932  -0.48758  -0.48579  -0.18865
 Alpha  occ. eigenvalues --   -0.18860  -0.00072
 Alpha virt. eigenvalues --    0.08908   0.62793   0.64434   0.91183   0.91212
 Alpha virt. eigenvalues --    0.91989   0.92012   0.92894   0.93810   1.03258
 Alpha virt. eigenvalues --    1.03350   1.03632   1.03721   1.04192   1.04956

 Mulliken charges and spin densities:
               1          2
     1  O   -0.270161   0.243658
     2  O   -0.229839   0.256342
     3  O   -0.229839   0.256342
     4  O   -0.270161   0.243658
 Sum of Mulliken charges =  -1.00000   1.00000

 Dipole moment (field-independent basis, Debye):
    X=             -0.0000    Y=             -0.0000    Z=             -0.0000  Tot=              0.0000
 Quadrupole moment (field-independent basis, Debye-Ang):
   XX=            -23.1840   YY=            -20.6687   ZZ=            -71.0860
   XY=              0.0000   XZ=              0.0000   YZ=              0.0000

 Normal termination of Gaussian 16 at Sun Feb 18 05:51:22 2024.
