 Gaussian 16, Revision A.03,
 Gaussian 16:  ES64L-G16RevA.03 25-Dec-2016

 -----------------------------------------------
 #p ROCCSD(T,MaxCyc=200)/cc-pVTZ SCF(MaxCyc=200)
 -----------------------------------------------

 ---------
 O2_O2_136
 ---------
 Symbolic Z-matrix:
 Charge = -1 Multiplicity = 2

                         Standard orientation:
 ---------------------------------------------------------------------
 Center     Atomic      Atomic             Coordinates (Angstroms)
 Number     Number       Type             X           Y           Z
 ---------------------------------------------------------------------
      1          8           0        0.615183   -2.305183    0.000000
      2          8           0       -0.205061   -1.484939    0.000000
      3          8           0       -0.205061    1.315061    0.000000
      4          8           0       -0.205061    2.475061    0.000000
 ---------------------------------------------------------------------

 SCF Done:  E(ROHF) =  -299.166802245     A.U. after   17 cycles
 E2 =    -0.9578325115D+00 EUMP2 =    -0.30012463475638D+03
 CCSD(T)
 CCSD(T)= -0.30015159825D+03

 The electronic state is 2-A".
 Alpha  occ. eigenvalues --  -20.42584 -20.42055 -20.41803 -20.41072  -1.42078
 Alpha  occ. eigenvalues --   -1.41573  -0.83168  -0.81971  -0.50564  -0.49929
 Alpha  occ. eigenvalues --   -0.48182  -0.46504  -0.46297  -0.45655  -0.16588
 Alpha  occ. eigenvalues --   -0.15949  -0.00571
 Alpha virt. eigenvalues --    0.14887   0.64588   0.70556   0.90425   0.91457
 Alpha virt. eigenvalues --    0.91836   0.94855   0.96222   1.00349   1.02570
 Alpha virt. eigenvalues --    1.05267   1.07496   1.09756   1.11947   1.12089

 Mulliken charges and spin densities:
               1          2
     1  O   -0.285322   0.236237
     2  O   -0.206117   0.255952
     3  O   -0.206498   0.267470
     4  O   -0.302062   0.240340
 Sum of Mulliken charges =  -1.00000   1.00000

 Dipole moment (field-independent basis, Debye):
    X=             -0.1264    Y=             -0.2571    Z=              0.0000  Tot=              0.2865
 Quadrupole moment (field-independent basis, Debye-Ang):
   XX=            -24.0485   YY=            -44.4602   ZZ=            -20.7335
   XY=              2.8650   XZ=              0.0000   YZ=              0.0000

 33161\CCSD=-300.1103257\CCSD(T)=-300.1515983\RMSD=2.111e-09\PG=CS [SG(
 Normal termination of Gaussian 16 at Sun Feb 18 00:29:17 2024.
