 Gaussian 16, Revision A.03,
 Gaussian 16:  ES64L-G16RevA.03 25-Dec-2016

 -----------------------------------------------
 #p ROCCSD(T,MaxCyc=200)/cc-pVTZ SCF(MaxCyc=200)
 -----------------------------------------------

 --------
 O2_O2_79
 --------
 Symbolic Z-matrix:
 Charge = -1 Multiplicity = 2

                         Standard orientation:
 ---------------------------------------------------------------------
 Center     Atomic      Atomic             Coordinates (Angstroms)
 Number     Number       Type             X           Y           Z
 ---------------------------------------------------------------------
      1          8           0        0.615183   -1.925183    0.000000
      2          8           0       -0.205061   -1.104939   -0.000000
      3          8           0       -0.205061    0.935061   -0.000000
      4          8           0       -0.205061    2.095061   -0.000000
 ---------------------------------------------------------------------

 SCF Done:  E(ROHF) =  -299.175707719     A.U. after   19 cycles
 E2 =    -0.9412530216D+00 EUMP2 =    -0.30011696074061D+03
 CCSD(T)
 CCSD(T)= -0.30018063560D+03

 The electronic state is 2-A'.
 Alpha  occ. eigenvalues --  -20.52352 -20.50530 -20.29144 -20.28061  -1.49371
 Alpha  occ. eigenvalues --   -1.31534  -0.88839  -0.74471  -0.58185  -0.54969
 Alpha  occ. eigenvalues --   -0.47687  -0.42414  -0.38470  -0.36126  -0.24114
 Alpha  occ. eigenvalues --   -0.09178  -0.03994
 Alpha virt. eigenvalues --    0.24576   0.65734   0.74731   0.88552   0.88883
 Alpha virt. eigenvalues --    0.95739   0.95900   0.99108   1.04005   1.04611
 Alpha virt. eigenvalues --    1.07428   1.10964   1.15796   1.19825   1.20958

 Mulliken charges and spin densities:
               1          2
     1  O   -0.465973   0.491683
     2  O   -0.408876   0.507464
     3  O    0.061430  -0.001283
     4  O   -0.186581   0.002135
 Sum of Mulliken charges =  -1.00000   1.00000

 Dipole moment (field-independent basis, Debye):
    X=             -0.8450    Y=              4.9189    Z=              0.0000  Tot=              4.9910
 Quadrupole moment (field-independent basis, Debye-Ang):
   XX=            -24.1155   YY=            -38.0186   ZZ=            -21.7282
   XY=              3.4551   XZ=             -0.0000   YZ=              0.0000

 8142\CCSD=-300.1407008\CCSD(T)=-300.1806356\RMSD=3.903e-09\PG=CS [SG(O
 Normal termination of Gaussian 16 at Sat Feb 17 22:36:38 2024.
