 Gaussian 16, Revision A.03,
 Gaussian 16:  ES64L-G16RevA.03 25-Dec-2016

 -----------------------------------------------
 #p ROCCSD(T,MaxCyc=200)/cc-pVTZ SCF(MaxCyc=200)
 -----------------------------------------------

 ---------
 O2_O2_219
 ---------
 Symbolic Z-matrix:
 Charge = -1 Multiplicity = 2

                         Standard orientation:
 ---------------------------------------------------------------------
 Center     Atomic      Atomic             Coordinates (Angstroms)
 Number     Number       Type             X           Y           Z
 ---------------------------------------------------------------------
      1          8           0        0.000000    0.000000    3.120000
      2          8           0        0.000000    0.000000    1.960000
      3          8           0        0.000000    0.000000   -1.960000
      4          8           0        0.000000    0.000000   -3.120000
 ---------------------------------------------------------------------

 SCF Done:  E(ROHF) =  -299.164295124     A.U. after   12 cycles
 E2 =    -0.9591762608D+00 EUMP2 =    -0.30012347138501D+03
 CCSD(T)
 CCSD(T)= -0.30014761451D+03

 Unable to determine electronic state:  an orbital has unidentified symmetry.
 Alpha  occ. eigenvalues --  -20.43822 -20.43821 -20.43323 -20.43323  -1.43518
 Alpha  occ. eigenvalues --   -1.43509  -0.84368  -0.84238  -0.51895  -0.51881
 Alpha  occ. eigenvalues --   -0.49159  -0.48946  -0.47977  -0.47660  -0.18040
 Alpha  occ. eigenvalues --   -0.17972  -0.00143
 Alpha virt. eigenvalues --    0.10746   0.59647   0.68797   0.90384   0.91816
 Alpha virt. eigenvalues --    0.92196   0.92620   0.92992   0.98105   1.03463
 Alpha virt. eigenvalues --    1.03859   1.04044   1.04922   1.05275   1.09520

 Mulliken charges and spin densities:
               1          2
     1  O   -0.277765   0.241322
     2  O   -0.222235   0.258678
     3  O   -0.222235   0.258678
     4  O   -0.277765   0.241322
 Sum of Mulliken charges =  -1.00000   1.00000

 Dipole moment (field-independent basis, Debye):
    X=             -0.0000    Y=             -0.0000    Z=              0.0000  Tot=              0.0000
 Quadrupole moment (field-independent basis, Debye-Ang):
   XX=            -23.1878   YY=            -20.6793   ZZ=            -58.5927
   XY=              0.0000   XZ=              0.0000   YZ=              0.0000

 Normal termination of Gaussian 16 at Sun Feb 18 03:02:14 2024.
