 Gaussian 16, Revision A.03,
 Gaussian 16:  ES64L-G16RevA.03 25-Dec-2016

 -----------------------------------------------
 #p ROCCSD(T,MaxCyc=200)/cc-pVTZ SCF(MaxCyc=200)
 -----------------------------------------------

 ---------
 O2_O2_116
 ---------
 Symbolic Z-matrix:
 Charge = -1 Multiplicity = 2

                         Standard orientation:
 ---------------------------------------------------------------------
 Center     Atomic      Atomic             Coordinates (Angstroms)
 Number     Number       Type             X           Y           Z
 ---------------------------------------------------------------------
      1          8           0       -0.870000   -1.550000    0.000000
      2          8           0        0.290000   -1.550000    0.000000
      3          8           0        0.290000    0.970000    0.000000
      4          8           0        0.290000    2.130000    0.000000
 ---------------------------------------------------------------------

 SCF Done:  E(ROHF) =  -299.175098921     A.U. after   15 cycles
 E2 =    -0.9572797924D+00 EUMP2 =    -0.30013237871341D+03
 CCSD(T)
 CCSD(T)= -0.30016091979D+03

 The electronic state is 2-A'.
 Alpha  occ. eigenvalues --  -20.42908 -20.41359 -20.40295 -20.40171  -1.41947
 Alpha  occ. eigenvalues --   -1.40106  -0.82719  -0.81117  -0.50386  -0.48777
 Alpha  occ. eigenvalues --   -0.48502  -0.46090  -0.45676  -0.42958  -0.16441
 Alpha  occ. eigenvalues --   -0.14710  -0.01865
 Alpha virt. eigenvalues --    0.18137   0.66064   0.69606   0.91306   0.91382
 Alpha virt. eigenvalues --    0.93762   0.96698   0.97067   1.00545   1.01528
 Alpha virt. eigenvalues --    1.05850   1.07023   1.09719   1.10718   1.13301

 Mulliken charges and spin densities:
               1          2
     1  O   -0.284705   0.244508
     2  O   -0.240985   0.280850
     3  O   -0.174075   0.250928
     4  O   -0.300235   0.223715
 Sum of Mulliken charges =  -1.00000   1.00000

 Dipole moment (field-independent basis, Debye):
    X=              0.1781    Y=              0.1175    Z=              0.0000  Tot=              0.2134
 Quadrupole moment (field-independent basis, Debye-Ang):
   XX=            -23.7330   YY=            -36.3278   ZZ=            -23.2037
   XY=             -2.4464   XZ=              0.0000   YZ=              0.0000

 56\CCSD(T)=-300.1609198\RMSD=5.870e-09\PG=CS [SG(O4)]\\@
 Normal termination of Gaussian 16 at Sat Feb 17 23:54:29 2024.
