 Gaussian 16, Revision A.03,
 Gaussian 16:  ES64L-G16RevA.03 25-Dec-2016

 -----------------------------------------------
 #p ROCCSD(T,MaxCyc=200)/cc-pVTZ SCF(MaxCyc=200)
 -----------------------------------------------

 ---------
 O2_O2_132
 ---------
 Symbolic Z-matrix:
 Charge = -1 Multiplicity = 2

                         Standard orientation:
 ---------------------------------------------------------------------
 Center     Atomic      Atomic             Coordinates (Angstroms)
 Number     Number       Type             X           Y           Z
 ---------------------------------------------------------------------
      1          8           0        0.000000    0.000000    2.540000
      2          8           0        0.000000    0.000000    1.380000
      3          8           0        0.000000    0.000000   -1.380000
      4          8           0        0.000000    0.000000   -2.540000
 ---------------------------------------------------------------------

 SCF Done:  E(ROHF) =  -299.168557371     A.U. after   12 cycles
 E2 =    -0.9577654284D+00 EUMP2 =    -0.30012632279983D+03
 CCSD(T)
 CCSD(T)= -0.30015287050D+03

 Unable to determine electronic state:  an orbital has unidentified symmetry.
 Alpha  occ. eigenvalues --  -20.42585 -20.42584 -20.41577 -20.41577  -1.42074
 Alpha  occ. eigenvalues --   -1.41977  -0.83359  -0.82095  -0.50521  -0.50279
 Alpha  occ. eigenvalues --   -0.48566  -0.46701  -0.46270  -0.45803  -0.16884
 Alpha  occ. eigenvalues --   -0.16066  -0.00737
 Alpha virt. eigenvalues --    0.14804   0.64784   0.71936   0.90395   0.91295
 Alpha virt. eigenvalues --    0.91938   0.94620   0.95350   1.01492   1.01961
 Alpha virt. eigenvalues --    1.03893   1.08765   1.11916   1.12781   1.12957

 Mulliken charges and spin densities:
               1          2
     1  O   -0.299398   0.237262
     2  O   -0.200602   0.262738
     3  O   -0.200602   0.262738
     4  O   -0.299398   0.237262
 Sum of Mulliken charges =  -1.00000   1.00000

 Dipole moment (field-independent basis, Debye):
    X=             -0.0000    Y=             -0.0000    Z=             -0.0000  Tot=              0.0000
 Quadrupole moment (field-independent basis, Debye-Ang):
   XX=            -23.1977   YY=            -20.7423   ZZ=            -46.6113
   XY=              0.0000   XZ=              0.0000   YZ=              0.0000

 Normal termination of Gaussian 16 at Sun Feb 18 00:21:40 2024.
