 Gaussian 16, Revision A.03,
 Gaussian 16:  ES64L-G16RevA.03 25-Dec-2016

 -----------------------------------------------
 #p ROCCSD(T,MaxCyc=200)/cc-pVTZ SCF(MaxCyc=200)
 -----------------------------------------------

 ---------
 O2_O2_148
 ---------
 Symbolic Z-matrix:
 Charge = -1 Multiplicity = 2

                         Standard orientation:
 ---------------------------------------------------------------------
 Center     Atomic      Atomic             Coordinates (Angstroms)
 Number     Number       Type             X           Y           Z
 ---------------------------------------------------------------------
      1          8           0        0.615183   -2.385183   -0.000000
      2          8           0       -0.205061   -1.564939    0.000000
      3          8           0       -0.205061    1.395061    0.000000
      4          8           0       -0.205061    2.555061    0.000000
 ---------------------------------------------------------------------

 SCF Done:  E(ROHF) =  -299.166350417     A.U. after   16 cycles
 E2 =    -0.9581230397D+00 EUMP2 =    -0.30012447345644D+03
 CCSD(T)
 CCSD(T)= -0.30015101271D+03

 The electronic state is 2-A".
 Alpha  occ. eigenvalues --  -20.42852 -20.42271 -20.42141 -20.41389  -1.42367
 Alpha  occ. eigenvalues --   -1.41834  -0.83318  -0.82377  -0.50795  -0.50193
 Alpha  occ. eigenvalues --   -0.48282  -0.46830  -0.46734  -0.46000  -0.16862
 Alpha  occ. eigenvalues --   -0.16247  -0.00442
 Alpha virt. eigenvalues --    0.14124   0.63396   0.70097   0.89347   0.91666
 Alpha virt. eigenvalues --    0.92165   0.94408   0.95716   0.99918   1.02710
 Alpha virt. eigenvalues --    1.04762   1.06640   1.08994   1.10642   1.11598

 Mulliken charges and spin densities:
               1          2
     1  O   -0.281673   0.236594
     2  O   -0.209399   0.255490
     3  O   -0.211597   0.266878
     4  O   -0.297331   0.241038
 Sum of Mulliken charges =  -1.00000   1.00000

 Dipole moment (field-independent basis, Debye):
    X=             -0.1147    Y=             -0.2650    Z=              0.0000  Tot=              0.2888
 Quadrupole moment (field-independent basis, Debye-Ang):
   XX=            -24.0356   YY=            -45.8437   ZZ=            -20.7207
   XY=              2.9176   XZ=              0.0000   YZ=             -0.0000

 876\CCSD=-300.1099605\CCSD(T)=-300.1510127\RMSD=4.136e-09\PG=CS [SG(O4
 Normal termination of Gaussian 16 at Sun Feb 18 00:51:14 2024.
