 Gaussian 16, Revision A.03,
 Gaussian 16:  ES64L-G16RevA.03 25-Dec-2016

 -----------------------------------------------
 #p ROCCSD(T,MaxCyc=200)/cc-pVTZ SCF(MaxCyc=200)
 -----------------------------------------------

 ---------
 O2_O2_142
 ---------
 Symbolic Z-matrix:
 Charge = -1 Multiplicity = 2

                         Standard orientation:
 ---------------------------------------------------------------------
 Center     Atomic      Atomic             Coordinates (Angstroms)
 Number     Number       Type             X           Y           Z
 ---------------------------------------------------------------------
      1          8           0        0.615183   -2.345183    0.000000
      2          8           0       -0.205061   -1.524939    0.000000
      3          8           0       -0.205061    1.355062   -0.000000
      4          8           0       -0.205061    2.515060   -0.000000
 ---------------------------------------------------------------------

 SCF Done:  E(ROHF) =  -299.166592321     A.U. after   18 cycles
 E2 =    -0.9579813103D+00 EUMP2 =    -0.30012457363145D+03
 CCSD(T)
 CCSD(T)= -0.30015132368D+03

 The electronic state is 2-A".
 Alpha  occ. eigenvalues --  -20.42724 -20.42164 -20.41978 -20.41233  -1.42226
 Alpha  occ. eigenvalues --   -1.41705  -0.83238  -0.82183  -0.50679  -0.50063
 Alpha  occ. eigenvalues --   -0.48228  -0.46620  -0.46578  -0.45833  -0.16728
 Alpha  occ. eigenvalues --   -0.16102  -0.00502
 Alpha virt. eigenvalues --    0.14494   0.63988   0.70318   0.89826   0.91563
 Alpha virt. eigenvalues --    0.91996   0.94629   0.95966   1.00123   1.02624
 Alpha virt. eigenvalues --    1.04999   1.07069   1.09391   1.11350   1.11724

 Mulliken charges and spin densities:
               1          2
     1  O   -0.283402   0.236388
     2  O   -0.207805   0.255712
     3  O   -0.209245   0.267202
     4  O   -0.299548   0.240698
 Sum of Mulliken charges =  -1.00000   1.00000

 Dipole moment (field-independent basis, Debye):
    X=             -0.1203    Y=             -0.2620    Z=             -0.0000  Tot=              0.2883
 Quadrupole moment (field-independent basis, Debye-Ang):
   XX=            -24.0417   YY=            -45.1424   ZZ=            -20.7268
   XY=              2.8909   XZ=             -0.0000   YZ=              0.0000

 30172\CCSD=-300.1101429\CCSD(T)=-300.1513237\RMSD=5.759e-09\PG=CS [SG(
 Normal termination of Gaussian 16 at Sun Feb 18 00:40:18 2024.
