 Gaussian 16, Revision A.03,
 Gaussian 16:  ES64L-G16RevA.03 25-Dec-2016

 -----------------------------------------------
 #p ROCCSD(T,MaxCyc=200)/cc-pVTZ SCF(MaxCyc=200)
 -----------------------------------------------

 --------
 O2_O2_93
 --------
 Symbolic Z-matrix:
 Charge = -1 Multiplicity = 2

                         Standard orientation:
 ---------------------------------------------------------------------
 Center     Atomic      Atomic             Coordinates (Angstroms)
 Number     Number       Type             X           Y           Z
 ---------------------------------------------------------------------
      1          8           0        0.000000    0.000000    2.280000
      2          8           0        0.000000    0.000000    1.120000
      3          8           0        0.000000    0.000000   -1.120000
      4          8           0        0.000000    0.000000   -2.280000
 ---------------------------------------------------------------------

 SCF Done:  E(ROHF) =  -299.038861066     A.U. after   13 cycles
 E2 =    -0.1290977248D+01 EUMP2 =    -0.30032983831361D+03
 CCSD(T)
 CCSD(T)= -0.30019692268D+03

 Unable to determine electronic state:  an orbital has unidentified symmetry.
 Alpha  occ. eigenvalues --  -20.45818 -20.45816 -20.41304 -20.41304  -1.42979
 Alpha  occ. eigenvalues --   -1.42584  -0.85243  -0.81143  -0.53059  -0.52206
 Alpha  occ. eigenvalues --   -0.50600  -0.45824  -0.44378  -0.43919  -0.19344
 Alpha  occ. eigenvalues --   -0.17464  -0.01191
 Alpha virt. eigenvalues --    0.18679   0.68801   0.71695   0.89791   0.91554
 Alpha virt. eigenvalues --    0.95391   0.96549   0.96606   1.00785   1.03277
 Alpha virt. eigenvalues --    1.04834   1.11129   1.12802   1.14279   1.17059

 Mulliken charges and spin densities:
               1          2
     1  O   -0.350381   0.208240
     2  O   -0.149619   0.291760
     3  O   -0.149619   0.291760
     4  O   -0.350381   0.208240
 Sum of Mulliken charges =  -1.00000   1.00000

 Dipole moment (field-independent basis, Debye):
    X=             -0.0000    Y=             -0.0000    Z=              0.0000  Tot=              0.0000
 Quadrupole moment (field-independent basis, Debye-Ang):
   XX=            -22.5461   YY=            -21.9654   ZZ=            -42.8729
   XY=              0.0000   XZ=              0.0000   YZ=              0.0000

 1\PMP2-0=-300.3298383\MP4SDQ=-299.9329106\CCSD=-300.1010009\CCSD(T)=-3
 Normal termination of Gaussian 16 at Sat Feb 17 23:06:03 2024.
