 Gaussian 16, Revision A.03,
 Gaussian 16:  ES64L-G16RevA.03 25-Dec-2016

 -----------------------------------------------
 #p ROCCSD(T,MaxCyc=200)/cc-pVTZ SCF(MaxCyc=200)
 -----------------------------------------------

 ---------
 O2_O2_299
 ---------
 Symbolic Z-matrix:
 Charge = -1 Multiplicity = 2

                         Standard orientation:
 ---------------------------------------------------------------------
 Center     Atomic      Atomic             Coordinates (Angstroms)
 Number     Number       Type             X           Y           Z
 ---------------------------------------------------------------------
      1          8           0       -0.870000   -2.770000    0.000000
      2          8           0        0.290000   -2.770000    0.000000
      3          8           0        0.290000    2.190000    0.000000
      4          8           0        0.290000    3.350000    0.000000
 ---------------------------------------------------------------------

 SCF Done:  E(ROHF) =  -299.164544285     A.U. after   21 cycles
 E2 =    -0.9595805279D+00 EUMP2 =    -0.30012412481253D+03
 CCSD(T)
 CCSD(T)= -0.30014809527D+03

 The electronic state is 2-A'.
 Alpha  occ. eigenvalues --  -20.44595 -20.44210 -20.44044 -20.43936  -1.44308
 Alpha  occ. eigenvalues --   -1.43904  -0.85112  -0.84815  -0.52687  -0.52294
 Alpha  occ. eigenvalues --   -0.49893  -0.49602  -0.48557  -0.48246  -0.18819
 Alpha  occ. eigenvalues --   -0.18456  -0.00160
 Alpha virt. eigenvalues --    0.09486   0.63610   0.63745   0.91293   0.91678
 Alpha virt. eigenvalues --    0.92079   0.92416   0.93460   0.93528   1.03389
 Alpha virt. eigenvalues --    1.03598   1.03766   1.04060   1.04640   1.04895

 Mulliken charges and spin densities:
               1          2
     1  O   -0.255153   0.251301
     2  O   -0.249358   0.253213
     3  O   -0.226130   0.254438
     4  O   -0.269360   0.241047
 Sum of Mulliken charges =  -1.00000   1.00000

 Dipole moment (field-independent basis, Debye):
    X=              0.0266    Y=              0.0157    Z=              0.0000  Tot=              0.0309
 Quadrupole moment (field-independent basis, Debye-Ang):
   XX=            -23.5087   YY=            -61.1017   ZZ=            -23.1849
   XY=             -3.9864   XZ=              0.0000   YZ=              0.0000

 91\CCSD(T)=-300.1480953\RMSD=2.946e-10\PG=CS [SG(O4)]\\@
 Normal termination of Gaussian 16 at Sun Feb 18 06:09:21 2024.
