 Gaussian 16, Revision A.03,
 Gaussian 16:  ES64L-G16RevA.03 25-Dec-2016

 -----------------------------------------------
 #p ROCCSD(T,MaxCyc=200)/cc-pVTZ SCF(MaxCyc=200)
 -----------------------------------------------

 --------
 O2_O2_51
 --------
 Symbolic Z-matrix:
 Charge = -1 Multiplicity = 2

                         Standard orientation:
 ---------------------------------------------------------------------
 Center     Atomic      Atomic             Coordinates (Angstroms)
 Number     Number       Type             X           Y           Z
 ---------------------------------------------------------------------
      1          8           0        0.000000    0.000000    2.000000
      2          8           0        0.000000    0.000000    0.840000
      3          8           0        0.000000    0.000000   -0.840000
      4          8           0        0.000000    0.000000   -2.000000
 ---------------------------------------------------------------------

 SCF Done:  E(ROHF) =  -299.035698717     A.U. after   13 cycles
 E2 =    -0.1165855440D+01 EUMP2 =    -0.30020155415732D+03
 CCSD(T)
 CCSD(T)= -0.30015278661D+03

 Unable to determine electronic state:  an orbital has unidentified symmetry.
 Alpha  occ. eigenvalues --  -20.45646 -20.45642 -20.37738 -20.37738  -1.42852
 Alpha  occ. eigenvalues --   -1.40741  -0.91517  -0.75878  -0.53669  -0.53364
 Alpha  occ. eigenvalues --   -0.49963  -0.46458  -0.41241  -0.34671  -0.19758
 Alpha  occ. eigenvalues --   -0.14166  -0.04089
 Alpha virt. eigenvalues --    0.24673   0.71214   0.72023   0.91415   0.93324
 Alpha virt. eigenvalues --    0.97507   0.98657   0.99526   1.04429   1.04634
 Alpha virt. eigenvalues --    1.07314   1.12301   1.14549   1.22273   1.24702

 Mulliken charges and spin densities:
               1          2
     1  O   -0.415840   0.182986
     2  O   -0.084160   0.317014
     3  O   -0.084160   0.317014
     4  O   -0.415840   0.182986
 Sum of Mulliken charges =  -1.00000   1.00000

 Dipole moment (field-independent basis, Debye):
    X=             -0.0000    Y=             -0.0000    Z=             -0.0000  Tot=              0.0000
 Quadrupole moment (field-independent basis, Debye-Ang):
   XX=            -22.4806   YY=            -21.9271   ZZ=            -40.5552
   XY=              0.0000   XZ=              0.0000   YZ=              0.0000

 87\PMP2-0=-300.2015542\MP4SDQ=-300.0507811\CCSD=-300.0740442\CCSD(T)=-
 Normal termination of Gaussian 16 at Sat Feb 17 21:39:11 2024.
