 Gaussian 16, Revision A.03,
 Gaussian 16:  ES64L-G16RevA.03 25-Dec-2016

 -----------------------------------------------
 #p ROCCSD(T,MaxCyc=200)/cc-pVTZ SCF(MaxCyc=200)
 -----------------------------------------------

 --------
 O2_O2_89
 --------
 Symbolic Z-matrix:
 Charge = -1 Multiplicity = 2

                         Standard orientation:
 ---------------------------------------------------------------------
 Center     Atomic      Atomic             Coordinates (Angstroms)
 Number     Number       Type             X           Y           Z
 ---------------------------------------------------------------------
      1          8           0       -0.870000   -1.370000    0.000000
      2          8           0        0.290000   -1.370000    0.000000
      3          8           0        0.290000    0.790000    0.000000
      4          8           0        0.290000    1.950000    0.000000
 ---------------------------------------------------------------------

 SCF Done:  E(ROHF) =  -299.190997181     A.U. after   28 cycles
 E2 =    -0.9415046914D+00 EUMP2 =    -0.30013250187216D+03
 CCSD(T)
 CCSD(T)= -0.30018957351D+03

 The electronic state is 2-A".
 Alpha  occ. eigenvalues --  -20.51172 -20.50345 -20.29034 -20.28952  -1.48045
 Alpha  occ. eigenvalues --   -1.31787  -0.87417  -0.75289  -0.57125  -0.53917
 Alpha  occ. eigenvalues --   -0.47363  -0.43145  -0.38965  -0.35485  -0.23315
 Alpha  occ. eigenvalues --   -0.09863  -0.04638
 Alpha virt. eigenvalues --    0.26105   0.62156   0.75898   0.88664   0.91247
 Alpha virt. eigenvalues --    0.91972   0.97586   0.99963   1.00555   1.02156
 Alpha virt. eigenvalues --    1.05563   1.07705   1.13974   1.19410   1.21304

 Mulliken charges and spin densities:
               1          2
     1  O   -0.091299   0.000259
     2  O   -0.028240   0.000661
     3  O   -0.430150   0.466414
     4  O   -0.450310   0.532665
 Sum of Mulliken charges =  -1.00000   1.00000

 Dipole moment (field-independent basis, Debye):
    X=             -0.8148    Y=             -4.7063    Z=              0.0000  Tot=              4.7763
 Quadrupole moment (field-independent basis, Debye-Ang):
   XX=            -23.9599   YY=            -34.0571   ZZ=            -22.2420
   XY=             -2.2495   XZ=              0.0000   YZ=              0.0000

 94\CCSD(T)=-300.1895735\RMSD=7.920e-09\PG=CS [SG(O4)]\\@
 Normal termination of Gaussian 16 at Sat Feb 17 22:57:42 2024.
