 Gaussian 16, Revision A.03,
 Gaussian 16:  ES64L-G16RevA.03 25-Dec-2016

 -----------------------------------------------
 #p ROCCSD(T,MaxCyc=200)/cc-pVTZ SCF(MaxCyc=200)
 -----------------------------------------------

 --------
 O2_O2_23
 --------
 Symbolic Z-matrix:
 Charge = -1 Multiplicity = 2

                         Standard orientation:
 ---------------------------------------------------------------------
 Center     Atomic      Atomic             Coordinates (Angstroms)
 Number     Number       Type             X           Y           Z
 ---------------------------------------------------------------------
      1          8           0       -0.870000   -0.930000    0.000000
      2          8           0        0.290000   -0.930000    0.000000
      3          8           0        0.290000    0.350000    0.000000
      4          8           0        0.290000    1.510000    0.000000
 ---------------------------------------------------------------------

 SCF Done:  E(ROHF) =  -298.923807256     A.U. after   20 cycles
 E2 =    -0.9294730156D+00 EUMP2 =    -0.29985328027163D+03
 CCSD(T)
 CCSD(T)= -0.29989693922D+03

 The electronic state is 2-A".
 Alpha  occ. eigenvalues --  -20.49272 -20.38779 -20.37392 -20.22406  -1.51999
 Alpha  occ. eigenvalues --   -1.35228  -0.96891  -0.74593  -0.60210  -0.56037
 Alpha  occ. eigenvalues --   -0.49228  -0.44567  -0.41165  -0.18846  -0.18206
 Alpha  occ. eigenvalues --   -0.09755  -0.08754
 Alpha virt. eigenvalues --    0.43805   0.68076   0.72178   0.86286   0.92254
 Alpha virt. eigenvalues --    0.96324   0.98420   1.00468   1.05004   1.10191
 Alpha virt. eigenvalues --    1.12203   1.13434   1.16367   1.19824   1.27753

 Mulliken charges and spin densities:
               1          2
     1  O   -0.656763   0.004950
     2  O    0.067027   0.045163
     3  O   -0.007080   0.472124
     4  O   -0.403184   0.477764
 Sum of Mulliken charges =  -1.00000   1.00000

 Dipole moment (field-independent basis, Debye):
    X=              2.3293    Y=              0.0544    Z=              0.0000  Tot=              2.3300
 Quadrupole moment (field-independent basis, Debye-Ang):
   XX=            -25.8688   YY=            -30.9972   ZZ=            -21.7816
   XY=             -4.0117   XZ=              0.0000   YZ=              0.0000

 CCSD(T)=-299.8969392\RMSD=6.322e-09\PG=CS [SG(O4)]\\@
 Normal termination of Gaussian 16 at Sat Feb 17 20:47:04 2024.
