 Gaussian 16, Revision A.03,
 Gaussian 16:  ES64L-G16RevA.03 25-Dec-2016

 -----------------------------------------------
 #p ROCCSD(T,MaxCyc=200)/cc-pVTZ SCF(MaxCyc=200)
 -----------------------------------------------

 ---------
 O2_O2_274
 ---------
 Symbolic Z-matrix:
 Charge = -1 Multiplicity = 2

                         Standard orientation:
 ---------------------------------------------------------------------
 Center     Atomic      Atomic             Coordinates (Angstroms)
 Number     Number       Type             X           Y           Z
 ---------------------------------------------------------------------
      1          8           0        0.615183   -3.225183    0.000000
      2          8           0       -0.205061   -2.404939   -0.000000
      3          8           0       -0.205061    2.235061   -0.000000
      4          8           0       -0.205061    3.395061   -0.000000
 ---------------------------------------------------------------------

 SCF Done:  E(ROHF) =  -299.163665946     A.U. after   41 cycles
 E2 =    -0.9596458469D+00 EUMP2 =    -0.30012331179275D+03
 CCSD(T)
 CCSD(T)= -0.30014668788D+03

 The electronic state is 2-A".
 Alpha  occ. eigenvalues --  -20.44358 -20.44238 -20.44064 -20.43857  -1.44123
 Alpha  occ. eigenvalues --   -1.43997  -0.84967  -0.84815  -0.52493  -0.52370
 Alpha  occ. eigenvalues --   -0.49746  -0.49570  -0.48471  -0.48282  -0.18634
 Alpha  occ. eigenvalues --   -0.18498  -0.00065
 Alpha virt. eigenvalues --    0.09477   0.62902   0.64781   0.91427   0.91537
 Alpha virt. eigenvalues --    0.92183   0.92336   0.93033   0.94254   1.03375
 Alpha virt. eigenvalues --    1.03658   1.03836   1.04065   1.04465   1.05559

 Mulliken charges and spin densities:
               1          2
     1  O   -0.266973   0.243637
     2  O   -0.231226   0.254593
     3  O   -0.228288   0.258023
     4  O   -0.273513   0.243747
 Sum of Mulliken charges =  -1.00000   1.00000

 Dipole moment (field-independent basis, Debye):
    X=             -0.0608    Y=             -0.1036    Z=              0.0000  Tot=              0.1201
 Quadrupole moment (field-independent basis, Debye-Ang):
   XX=            -23.9901   YY=            -64.5573   ZZ=            -20.6695
   XY=              3.5971   XZ=             -0.0000   YZ=              0.0000

 779\CCSD=-300.1058164\CCSD(T)=-300.1466879\RMSD=3.241e-09\PG=CS [SG(O4
 Normal termination of Gaussian 16 at Sun Feb 18 05:03:56 2024.
