 Gaussian 16, Revision A.03,
 Gaussian 16:  ES64L-G16RevA.03 25-Dec-2016

 -----------------------------------------------
 #p ROCCSD(T,MaxCyc=200)/cc-pVTZ SCF(MaxCyc=200)
 -----------------------------------------------

 ---------
 O2_O2_229
 ---------
 Symbolic Z-matrix:
 Charge = -1 Multiplicity = 2

                         Standard orientation:
 ---------------------------------------------------------------------
 Center     Atomic      Atomic             Coordinates (Angstroms)
 Number     Number       Type             X           Y           Z
 ---------------------------------------------------------------------
      1          8           0        0.615183   -2.925183   -0.000000
      2          8           0       -0.205061   -2.104939   -0.000000
      3          8           0       -0.205061    1.935061    0.000000
      4          8           0       -0.205061    3.095061    0.000000
 ---------------------------------------------------------------------

 SCF Done:  E(ROHF) =  -299.163978967     A.U. after   89 cycles
 E2 =    -0.9591991976D+00 EUMP2 =    -0.30012317816490D+03
 CCSD(T)
 CCSD(T)= -0.30014719234D+03

 The electronic state is 2-A".
 Alpha  occ. eigenvalues --  -20.43923 -20.43643 -20.43544 -20.43161  -1.43632
 Alpha  occ. eigenvalues --   -1.43369  -0.84461  -0.84165  -0.51999  -0.51740
 Alpha  occ. eigenvalues --   -0.49250  -0.48896  -0.47965  -0.47663  -0.18132
 Alpha  occ. eigenvalues --   -0.17858  -0.00103
 Alpha virt. eigenvalues --    0.10676   0.61655   0.66862   0.91056   0.91843
 Alpha virt. eigenvalues --    0.92194   0.92822   0.93262   0.96387   1.03250
 Alpha virt. eigenvalues --    1.04015   1.04158   1.05026   1.05046   1.08771

 Mulliken charges and spin densities:
               1          2
     1  O   -0.270444   0.241545
     2  O   -0.225687   0.254898
     3  O   -0.224170   0.260557
     4  O   -0.279700   0.243000
 Sum of Mulliken charges =  -1.00000   1.00000

 Dipole moment (field-independent basis, Debye):
    X=             -0.0733    Y=             -0.1607    Z=              0.0000  Tot=              0.1767
 Quadrupole moment (field-independent basis, Debye-Ang):
   XX=            -23.9993   YY=            -57.0490   ZZ=            -20.6762
   XY=              3.3391   XZ=              0.0000   YZ=             -0.0000

 363\CCSD=-300.1114838\CCSD(T)=-300.1471923\RMSD=5.763e-09\PG=CS [SG(O4
 Normal termination of Gaussian 16 at Sun Feb 18 03:20:41 2024.
