 Gaussian 16, Revision A.03,
 Gaussian 16:  ES64L-G16RevA.03 25-Dec-2016

 -----------------------------------------------
 #p ROCCSD(T,MaxCyc=200)/cc-pVTZ SCF(MaxCyc=200)
 -----------------------------------------------

 --------
 O2_O2_61
 --------
 Symbolic Z-matrix:
 Charge = -1 Multiplicity = 2

                         Standard orientation:
 ---------------------------------------------------------------------
 Center     Atomic      Atomic             Coordinates (Angstroms)
 Number     Number       Type             X           Y           Z
 ---------------------------------------------------------------------
      1          8           0        0.615183   -1.805183    0.000000
      2          8           0       -0.205061   -0.984939    0.000000
      3          8           0       -0.205061    0.815061    0.000000
      4          8           0       -0.205061    1.975061    0.000000
 ---------------------------------------------------------------------

 SCF Done:  E(ROHF) =  -299.144514715     A.U. after   18 cycles
 E2 =    -0.9570025913D+00 EUMP2 =    -0.30010151730667D+03
 CCSD(T)
 CCSD(T)= -0.30016058172D+03

 The electronic state is 2-A'.
 Alpha  occ. eigenvalues --  -20.49332 -20.46685 -20.31890 -20.29220  -1.46599
 Alpha  occ. eigenvalues --   -1.33575  -0.88762  -0.75225  -0.55585  -0.54166
 Alpha  occ. eigenvalues --   -0.45802  -0.43525  -0.39476  -0.35293  -0.21366
 Alpha  occ. eigenvalues --   -0.10213  -0.05062
 Alpha virt. eigenvalues --    0.26831   0.67911   0.74746   0.90139   0.91040
 Alpha virt. eigenvalues --    0.97187   0.98701   1.00074   1.03322   1.05307
 Alpha virt. eigenvalues --    1.08591   1.09260   1.15434   1.21669   1.22088

 Mulliken charges and spin densities:
               1          2
     1  O   -0.468727   0.459977
     2  O   -0.328083   0.533725
     3  O    0.036392   0.001311
     4  O   -0.239582   0.004988
 Sum of Mulliken charges =  -1.00000   1.00000

 Dipole moment (field-independent basis, Debye):
    X=             -0.8297    Y=              3.5667    Z=             -0.0000  Tot=              3.6620
 Quadrupole moment (field-independent basis, Debye-Ang):
   XX=            -24.0987   YY=            -37.1038   ZZ=            -21.7307
   XY=              3.4768   XZ=              0.0000   YZ=              0.0000

 9551\CCSD=-300.1105991\CCSD(T)=-300.1605817\RMSD=8.326e-09\PG=CS [SG(O
 Normal termination of Gaussian 16 at Sat Feb 17 21:59:52 2024.
