 Gaussian 16, Revision A.03,
 Gaussian 16:  ES64L-G16RevA.03 25-Dec-2016

 -----------------------------------------------
 #p ROCCSD(T,MaxCyc=200)/cc-pVTZ SCF(MaxCyc=200)
 -----------------------------------------------

 ---------
 O2_O2_212
 ---------
 Symbolic Z-matrix:
 Charge = -1 Multiplicity = 2

                         Standard orientation:
 ---------------------------------------------------------------------
 Center     Atomic      Atomic             Coordinates (Angstroms)
 Number     Number       Type             X           Y           Z
 ---------------------------------------------------------------------
      1          8           0       -0.870000   -2.190000    0.000000
      2          8           0        0.290000   -2.190000    0.000000
      3          8           0        0.290000    1.610000    0.000000
      4          8           0        0.290000    2.770000    0.000000
 ---------------------------------------------------------------------

 SCF Done:  E(ROHF) =  -299.166667357     A.U. after   15 cycles
 E2 =    -0.9583603911D+00 EUMP2 =    -0.30012502774819D+03
 CCSD(T)
 CCSD(T)= -0.30014996901D+03

 The electronic state is 2-A'.
 Alpha  occ. eigenvalues --  -20.43728 -20.43085 -20.42841 -20.42717  -1.43293
 Alpha  occ. eigenvalues --   -1.42663  -0.84039  -0.83604  -0.51677  -0.51070
 Alpha  occ. eigenvalues --   -0.48851  -0.48406  -0.47475  -0.46950  -0.17792
 Alpha  occ. eigenvalues --   -0.17242  -0.00388
 Alpha virt. eigenvalues --    0.12122   0.63745   0.65079   0.88938   0.92234
 Alpha virt. eigenvalues --    0.92849   0.93791   0.94613   0.98327   1.03356
 Alpha virt. eigenvalues --    1.04281   1.05011   1.05846   1.05937   1.08239

 Mulliken charges and spin densities:
               1          2
     1  O   -0.260072   0.251023
     2  O   -0.246942   0.256433
     3  O   -0.214263   0.255913
     4  O   -0.278723   0.236632
 Sum of Mulliken charges =  -1.00000   1.00000

 Dipole moment (field-independent basis, Debye):
    X=              0.0474    Y=             -0.0076    Z=              0.0000  Tot=              0.0480
 Quadrupole moment (field-independent basis, Debye-Ang):
   XX=            -23.5555   YY=            -47.4694   ZZ=            -23.1907
   XY=             -3.2426   XZ=              0.0000   YZ=              0.0000

 96\CCSD(T)=-300.149969\RMSD=7.532e-09\PG=CS [SG(O4)]\\@
 Normal termination of Gaussian 16 at Sun Feb 18 02:46:23 2024.
