 Gaussian 16, Revision A.03,
 Gaussian 16:  ES64L-G16RevA.03 25-Dec-2016

 -----------------------------------------------
 #p ROCCSD(T,MaxCyc=200)/cc-pVTZ SCF(MaxCyc=200)
 -----------------------------------------------

 ---------
 O2_O2_263
 ---------
 Symbolic Z-matrix:
 Charge = -1 Multiplicity = 2

                         Standard orientation:
 ---------------------------------------------------------------------
 Center     Atomic      Atomic             Coordinates (Angstroms)
 Number     Number       Type             X           Y           Z
 ---------------------------------------------------------------------
      1          8           0       -0.870000   -2.530000    0.000000
      2          8           0        0.290000   -2.530000    0.000000
      3          8           0        0.290000    1.950000    0.000000
      4          8           0        0.290000    3.110000    0.000000
 ---------------------------------------------------------------------

 SCF Done:  E(ROHF) =  -299.164986435     A.U. after   17 cycles
 E2 =    -0.9591336417D+00 EUMP2 =    -0.30012412007718D+03
 CCSD(T)
 CCSD(T)= -0.30014841988D+03

 The electronic state is 2-A'.
 Alpha  occ. eigenvalues --  -20.44262 -20.43801 -20.43588 -20.43474  -1.43933
 Alpha  occ. eigenvalues --   -1.43441  -0.84719  -0.84364  -0.52314  -0.51836
 Alpha  occ. eigenvalues --   -0.49503  -0.49154  -0.48164  -0.47782  -0.18440
 Alpha  occ. eigenvalues --   -0.18001  -0.00212
 Alpha virt. eigenvalues --    0.10405   0.63896   0.64237   0.91463   0.91692
 Alpha virt. eigenvalues --    0.92440   0.92867   0.93888   0.94608   1.03772
 Alpha virt. eigenvalues --    1.03924   1.04042   1.04548   1.05167   1.05574

 Mulliken charges and spin densities:
               1          2
     1  O   -0.256688   0.251431
     2  O   -0.248886   0.254190
     3  O   -0.221797   0.254958
     4  O   -0.272629   0.239421
 Sum of Mulliken charges =  -1.00000   1.00000

 Dipole moment (field-independent basis, Debye):
    X=              0.0337    Y=              0.0130    Z=              0.0000  Tot=              0.0361
 Quadrupole moment (field-independent basis, Debye-Ang):
   XX=            -23.5219   YY=            -55.0748   ZZ=            -23.1867
   XY=             -3.6756   XZ=              0.0000   YZ=              0.0000

 19\CCSD(T)=-300.1484199\RMSD=6.548e-09\PG=CS [SG(O4)]\\@
 Normal termination of Gaussian 16 at Sun Feb 18 04:34:53 2024.
