 Gaussian 16, Revision A.03,
 Gaussian 16:  ES64L-G16RevA.03 25-Dec-2016

 -----------------------------------------------
 #p ROCCSD(T,MaxCyc=200)/cc-pVTZ SCF(MaxCyc=200)
 -----------------------------------------------

 ---------
 O2_O2_145
 ---------
 Symbolic Z-matrix:
 Charge = -1 Multiplicity = 2

                         Standard orientation:
 ---------------------------------------------------------------------
 Center     Atomic      Atomic             Coordinates (Angstroms)
 Number     Number       Type             X           Y           Z
 ---------------------------------------------------------------------
      1          8           0        0.615183   -2.365183   -0.000000
      2          8           0       -0.205061   -1.544939   -0.000000
      3          8           0       -0.205061    1.375061    0.000000
      4          8           0       -0.205061    2.535061    0.000000
 ---------------------------------------------------------------------

 SCF Done:  E(ROHF) =  -299.166474107     A.U. after   15 cycles
 E2 =    -0.9580534164D+00 EUMP2 =    -0.30012452752323D+03
 CCSD(T)
 CCSD(T)= -0.30015117194D+03

 The electronic state is 2-A".
 Alpha  occ. eigenvalues --  -20.42789 -20.42218 -20.42061 -20.41312  -1.42297
 Alpha  occ. eigenvalues --   -1.41770  -0.83277  -0.82283  -0.50737  -0.50128
 Alpha  occ. eigenvalues --   -0.48254  -0.46707  -0.46677  -0.45918  -0.16795
 Alpha  occ. eigenvalues --   -0.16175  -0.00471
 Alpha virt. eigenvalues --    0.14306   0.63690   0.70206   0.89571   0.91615
 Alpha virt. eigenvalues --    0.92080   0.94518   0.95841   1.00019   1.02664
 Alpha virt. eigenvalues --    1.04877   1.06853   1.09197   1.10992   1.11651

 Mulliken charges and spin densities:
               1          2
     1  O   -0.282516   0.236485
     2  O   -0.208614   0.255599
     3  O   -0.210466   0.267045
     4  O   -0.298405   0.240870
 Sum of Mulliken charges =  -1.00000   1.00000

 Dipole moment (field-independent basis, Debye):
    X=             -0.1175    Y=             -0.2637    Z=             -0.0000  Tot=              0.2887
 Quadrupole moment (field-independent basis, Debye-Ang):
   XX=            -24.0386   YY=            -45.4907   ZZ=            -20.7237
   XY=              2.9041   XZ=              0.0000   YZ=             -0.0000

 28552\CCSD=-300.1100501\CCSD(T)=-300.1511719\RMSD=8.574e-09\PG=CS [SG(
 Normal termination of Gaussian 16 at Sun Feb 18 00:45:42 2024.
