 Gaussian 16, Revision A.03,
 Gaussian 16:  ES64L-G16RevA.03 25-Dec-2016

 -----------------------------------------------
 #p ROCCSD(T,MaxCyc=200)/cc-pVTZ SCF(MaxCyc=200)
 -----------------------------------------------

 -------
 O2_O2_4
 -------
 Symbolic Z-matrix:
 Charge = -1 Multiplicity = 2

                         Standard orientation:
 ---------------------------------------------------------------------
 Center     Atomic      Atomic             Coordinates (Angstroms)
 Number     Number       Type             X           Y           Z
 ---------------------------------------------------------------------
      1          8           0        0.615183   -1.425183    0.000000
      2          8           0       -0.205061   -0.604939   -0.000000
      3          8           0       -0.205061    0.435061   -0.000000
      4          8           0       -0.205061    1.595061   -0.000000
 ---------------------------------------------------------------------

 SCF Done:  E(ROHF) =  -298.825664778     A.U. after   15 cycles
 E2 =    -0.9205780124D+00 EUMP2 =    -0.29974624279001D+03
 CCSD(T)
 CCSD(T)= -0.29978014885D+03

 The electronic state is 2-A".
 Alpha  occ. eigenvalues --  -20.51422 -20.44365 -20.31524 -20.26914  -1.67438
 Alpha  occ. eigenvalues --   -1.35165  -1.17004  -0.72628  -0.70381  -0.61492
 Alpha  occ. eigenvalues --   -0.54396  -0.43075  -0.39098  -0.20991  -0.19549
 Alpha  occ. eigenvalues --   -0.09266  -0.04149
 Alpha virt. eigenvalues --    0.56703   0.72428   0.79315   0.88776   0.90132
 Alpha virt. eigenvalues --    0.90698   0.96495   1.02227   1.05889   1.08234
 Alpha virt. eigenvalues --    1.09727   1.12699   1.17203   1.19005   1.25290

 Mulliken charges and spin densities:
               1          2
     1  O   -0.673201   0.121323
     2  O    0.194153   0.357858
     3  O    0.045657   0.391567
     4  O   -0.566609   0.129251
 Sum of Mulliken charges =  -1.00000   1.00000

 Dipole moment (field-independent basis, Debye):
    X=             -1.3047    Y=              0.1475    Z=             -0.0000  Tot=              1.3130
 Quadrupole moment (field-independent basis, Debye-Ang):
   XX=            -24.1139   YY=            -37.8351   ZZ=            -21.3729
   XY=              3.9013   XZ=             -0.0000   YZ=              0.0000

 041\CCSD=-299.7460148\CCSD(T)=-299.7801488\RMSD=9.160e-09\PG=CS [SG(O4
 Normal termination of Gaussian 16 at Sat Feb 17 20:16:57 2024.
