 Gaussian 16, Revision A.03,
 Gaussian 16:  ES64L-G16RevA.03 25-Dec-2016

 -----------------------------------------------
 #p ROCCSD(T,MaxCyc=200)/cc-pVTZ SCF(MaxCyc=200)
 -----------------------------------------------

 ---------
 O2_O2_297
 ---------
 Symbolic Z-matrix:
 Charge = -1 Multiplicity = 2

                         Standard orientation:
 ---------------------------------------------------------------------
 Center     Atomic      Atomic             Coordinates (Angstroms)
 Number     Number       Type             X           Y           Z
 ---------------------------------------------------------------------
      1          8           0        0.000000    0.000000    3.640000
      2          8           0        0.000000    0.000000    2.480000
      3          8           0        0.000000    0.000000   -2.480000
      4          8           0        0.000000    0.000000   -3.640000
 ---------------------------------------------------------------------

 SCF Done:  E(ROHF) =  -299.163743684     A.U. after   13 cycles
 E2 =    -0.9600038618D+00 EUMP2 =    -0.30012374754585D+03
 CCSD(T)
 CCSD(T)= -0.30014683002D+03

 Unable to determine electronic state:  an orbital has unidentified symmetry.
 Alpha  occ. eigenvalues --  -20.44650 -20.44650 -20.44314 -20.44314  -1.44416
 Alpha  occ. eigenvalues --   -1.44414  -0.85260  -0.85222  -0.52791  -0.52790
 Alpha  occ. eigenvalues --   -0.50015  -0.49995  -0.48813  -0.48642  -0.18924
 Alpha  occ. eigenvalues --   -0.18921  -0.00070
 Alpha virt. eigenvalues --    0.08785   0.62880   0.64222   0.91128   0.91152
 Alpha virt. eigenvalues --    0.91934   0.91952   0.92922   0.93650   1.03208
 Alpha virt. eigenvalues --    1.03279   1.03582   1.03650   1.04194   1.04813

 Mulliken charges and spin densities:
               1          2
     1  O   -0.269643   0.243817
     2  O   -0.230357   0.256183
     3  O   -0.230357   0.256183
     4  O   -0.269643   0.243817
 Sum of Mulliken charges =  -1.00000   1.00000

 Dipole moment (field-independent basis, Debye):
    X=             -0.0000    Y=             -0.0000    Z=              0.0000  Tot=              0.0000
 Quadrupole moment (field-independent basis, Debye-Ang):
   XX=            -20.6683   YY=            -23.1838   ZZ=            -72.2304
   XY=              0.0000   XZ=              0.0000   YZ=              0.0000

 Normal termination of Gaussian 16 at Sun Feb 18 06:06:23 2024.
