 Gaussian 16, Revision A.03,
 Gaussian 16:  ES64L-G16RevA.03 25-Dec-2016

 -----------------------------------------------
 #p ROCCSD(T,MaxCyc=200)/cc-pVTZ SCF(MaxCyc=200)
 -----------------------------------------------

 --------
 O2_O2_76
 --------
 Symbolic Z-matrix:
 Charge = -1 Multiplicity = 2

                         Standard orientation:
 ---------------------------------------------------------------------
 Center     Atomic      Atomic             Coordinates (Angstroms)
 Number     Number       Type             X           Y           Z
 ---------------------------------------------------------------------
      1          8           0        0.615183   -1.905183    0.000000
      2          8           0       -0.205061   -1.084939    0.000000
      3          8           0       -0.205061    0.915062    0.000000
      4          8           0       -0.205061    2.075060    0.000000
 ---------------------------------------------------------------------

 SCF Done:  E(ROHF) =  -299.172346188     A.U. after   19 cycles
 E2 =    -0.9433855958D+00 EUMP2 =    -0.30011573178380D+03
 CCSD(T)
 CCSD(T)= -0.30017919632D+03

 The electronic state is 2-A'.
 Alpha  occ. eigenvalues --  -20.51883 -20.49958 -20.29512 -20.28259  -1.48934
 Alpha  occ. eigenvalues --   -1.31822  -0.88653  -0.74669  -0.57759  -0.54745
 Alpha  occ. eigenvalues --   -0.47346  -0.42588  -0.38643  -0.36130  -0.23680
 Alpha  occ. eigenvalues --   -0.09365  -0.04142
 Alpha virt. eigenvalues --    0.24927   0.66078   0.74746   0.88814   0.89225
 Alpha virt. eigenvalues --    0.96059   0.96267   0.99290   1.03973   1.04800
 Alpha virt. eigenvalues --    1.07568   1.10733   1.15781   1.20310   1.21115

 Mulliken charges and spin densities:
               1          2
     1  O   -0.465325   0.488557
     2  O   -0.398691   0.510306
     3  O    0.058432  -0.001294
     4  O   -0.194416   0.002431
 Sum of Mulliken charges =  -1.00000   1.00000

 Dipole moment (field-independent basis, Debye):
    X=             -0.8394    Y=              4.7029    Z=             -0.0000  Tot=              4.7772
 Quadrupole moment (field-independent basis, Debye-Ang):
   XX=            -24.1117   YY=            -37.8305   ZZ=            -21.7310
   XY=              3.4512   XZ=              0.0000   YZ=              0.0000

 2294\CCSD=-300.1373792\CCSD(T)=-300.1791963\RMSD=3.726e-09\PG=CS [SG(O
 Normal termination of Gaussian 16 at Sat Feb 17 22:30:37 2024.
