 Gaussian 16, Revision A.03,
 Gaussian 16:  ES64L-G16RevA.03 25-Dec-2016

 -----------------------------------------------
 #p ROCCSD(T,MaxCyc=200)/cc-pVTZ SCF(MaxCyc=200)
 -----------------------------------------------

 ---------
 O2_O2_203
 ---------
 Symbolic Z-matrix:
 Charge = -1 Multiplicity = 2

                         Standard orientation:
 ---------------------------------------------------------------------
 Center     Atomic      Atomic             Coordinates (Angstroms)
 Number     Number       Type             X           Y           Z
 ---------------------------------------------------------------------
      1          8           0       -0.870000   -2.130000    0.000000
      2          8           0        0.290000   -2.130000    0.000000
      3          8           0        0.290000    1.550000    0.000000
      4          8           0        0.290000    2.710000    0.000000
 ---------------------------------------------------------------------

 SCF Done:  E(ROHF) =  -299.167182487     A.U. after   15 cycles
 E2 =    -0.9582121165D+00 EUMP2 =    -0.30012539460305D+03
 CCSD(T)
 CCSD(T)= -0.30015059860D+03

 The electronic state is 2-A'.
 Alpha  occ. eigenvalues --  -20.43631 -20.42941 -20.42691 -20.42566  -1.43167
 Alpha  occ. eigenvalues --   -1.42505  -0.83903  -0.83450  -0.51552  -0.50914
 Alpha  occ. eigenvalues --   -0.48733  -0.48254  -0.47335  -0.46768  -0.17664
 Alpha  occ. eigenvalues --   -0.17089  -0.00442
 Alpha virt. eigenvalues --    0.12498   0.63647   0.65258   0.88368   0.92302
 Alpha virt. eigenvalues --    0.92857   0.94024   0.94763   0.99017   1.03235
 Alpha virt. eigenvalues --    1.04352   1.05275   1.06013   1.06166   1.08886

 Mulliken charges and spin densities:
               1          2
     1  O   -0.260985   0.250820
     2  O   -0.246347   0.257076
     3  O   -0.212737   0.256082
     4  O   -0.279931   0.236022
 Sum of Mulliken charges =  -1.00000   1.00000

 Dipole moment (field-independent basis, Debye):
    X=              0.0511    Y=             -0.0119    Z=              0.0000  Tot=              0.0525
 Quadrupole moment (field-independent basis, Debye-Ang):
   XX=            -23.5644   YY=            -46.2402   ZZ=            -23.1916
   XY=             -3.1668   XZ=              0.0000   YZ=              0.0000

 8\CCSD(T)=-300.1505986\RMSD=8.274e-09\PG=CS [SG(O4)]\\@
 Normal termination of Gaussian 16 at Sun Feb 18 02:29:55 2024.
