 Gaussian 16, Revision A.03,
 Gaussian 16:  ES64L-G16RevA.03 25-Dec-2016

 -----------------------------------------------
 #p ROCCSD(T,MaxCyc=200)/cc-pVTZ SCF(MaxCyc=200)
 -----------------------------------------------

 ---------
 O2_O2_288
 ---------
 Symbolic Z-matrix:
 Charge = -1 Multiplicity = 2

                         Standard orientation:
 ---------------------------------------------------------------------
 Center     Atomic      Atomic             Coordinates (Angstroms)
 Number     Number       Type             X           Y           Z
 ---------------------------------------------------------------------
      1          8           0        0.000000    0.000000    3.580000
      2          8           0        0.000000    0.000000    2.420000
      3          8           0        0.000000    0.000000   -2.420000
      4          8           0        0.000000    0.000000   -3.580000
 ---------------------------------------------------------------------

 SCF Done:  E(ROHF) =  -299.163755784     A.U. after   13 cycles
 E2 =    -0.9599176303D+00 EUMP2 =    -0.30012367341411D+03
 CCSD(T)
 CCSD(T)= -0.30014685372D+03

 Unable to determine electronic state:  an orbital has unidentified symmetry.
 Alpha  occ. eigenvalues --  -20.44566 -20.44566 -20.44217 -20.44217  -1.44327
 Alpha  occ. eigenvalues --   -1.44324  -0.85170  -0.85128  -0.52701  -0.52700
 Alpha  occ. eigenvalues --   -0.49925  -0.49899  -0.48730  -0.48547  -0.18835
 Alpha  occ. eigenvalues --   -0.18829  -0.00073
 Alpha virt. eigenvalues --    0.08971   0.62741   0.64550   0.91211   0.91243
 Alpha virt. eigenvalues --    0.92016   0.92043   0.92872   0.93899   1.03283
 Alpha virt. eigenvalues --    1.03387   1.03657   1.03758   1.04188   1.05034

 Mulliken charges and spin densities:
               1          2
     1  O   -0.270427   0.243577
     2  O   -0.229573   0.256423
     3  O   -0.229573   0.256423
     4  O   -0.270427   0.243577
 Sum of Mulliken charges =  -1.00000   1.00000

 Dipole moment (field-independent basis, Debye):
    X=             -0.0000    Y=             -0.0000    Z=              0.0000  Tot=              0.0000
 Quadrupole moment (field-independent basis, Debye-Ang):
   XX=            -23.1841   YY=            -20.6688   ZZ=            -70.5198
   XY=              0.0000   XZ=              0.0000   YZ=              0.0000

 58\PMP2-0=-300.1236734\MP4SDQ=-300.1087358\CCSD=-300.105778\CCSD(T)=-3
 Normal termination of Gaussian 16 at Sun Feb 18 05:45:57 2024.
