 Gaussian 16, Revision A.03,
 Gaussian 16:  ES64L-G16RevA.03 25-Dec-2016

 -----------------------------------------------
 #p ROCCSD(T,MaxCyc=200)/cc-pVTZ SCF(MaxCyc=200)
 -----------------------------------------------

 ---------
 O2_O2_104
 ---------
 Symbolic Z-matrix:
 Charge = -1 Multiplicity = 2

                         Standard orientation:
 ---------------------------------------------------------------------
 Center     Atomic      Atomic             Coordinates (Angstroms)
 Number     Number       Type             X           Y           Z
 ---------------------------------------------------------------------
      1          8           0       -0.870000   -1.470000    0.000000
      2          8           0        0.290000   -1.470000    0.000000
      3          8           0        0.290000    0.890000    0.000000
      4          8           0        0.290000    2.050000    0.000000
 ---------------------------------------------------------------------

 SCF Done:  E(ROHF) =  -299.192097156     A.U. after   25 cycles
 E2 =    -0.9329964394D+00 EUMP2 =    -0.30012509359519D+03
 CCSD(T)
 CCSD(T)= -0.30018351291D+03

 The electronic state is 2-A".
 Alpha  occ. eigenvalues --  -20.53656 -20.51976 -20.28147 -20.27734  -1.50390
 Alpha  occ. eigenvalues --   -1.30773  -0.88964  -0.73653  -0.59206  -0.55603
 Alpha  occ. eigenvalues --   -0.48384  -0.42148  -0.37584  -0.36404  -0.25151
 Alpha  occ. eigenvalues --   -0.08807  -0.03771
 Alpha virt. eigenvalues --    0.23973   0.64794   0.71903   0.87683   0.88587
 Alpha virt. eigenvalues --    0.93140   0.95634   1.00569   1.01427   1.03249
 Alpha virt. eigenvalues --    1.07762   1.08435   1.09674   1.12490   1.17367

 Mulliken charges and spin densities:
               1          2
     1  O   -0.475644   0.482900
     2  O   -0.439257   0.516988
     3  O    0.070138   0.000084
     4  O   -0.155237   0.000029
 Sum of Mulliken charges =  -1.00000   1.00000

 Dipole moment (field-independent basis, Debye):
    X=              1.2026    Y=              5.1452    Z=              0.0000  Tot=              5.2838
 Quadrupole moment (field-independent basis, Debye-Ang):
   XX=            -24.4534   YY=            -36.0769   ZZ=            -22.2513
   XY=             -2.3496   XZ=              0.0000   YZ=              0.0000

 503\CCSD(T)=-300.1835129\RMSD=3.496e-09\PG=CS [SG(O4)]\\@
 Normal termination of Gaussian 16 at Sat Feb 17 23:32:54 2024.
