 Gaussian 16, Revision A.03,
 Gaussian 16:  ES64L-G16RevA.03 25-Dec-2016

 -----------------------------------------------
 #p ROCCSD(T,MaxCyc=200)/cc-pVTZ SCF(MaxCyc=200)
 -----------------------------------------------

 ---------
 O2_O2_181
 ---------
 Symbolic Z-matrix:
 Charge = -1 Multiplicity = 2

                         Standard orientation:
 ---------------------------------------------------------------------
 Center     Atomic      Atomic             Coordinates (Angstroms)
 Number     Number       Type             X           Y           Z
 ---------------------------------------------------------------------
      1          8           0        0.615183   -2.605183   -0.000000
      2          8           0       -0.205061   -1.784939    0.000000
      3          8           0       -0.205061    1.615061    0.000000
      4          8           0       -0.205061    2.775061    0.000000
 ---------------------------------------------------------------------

 SCF Done:  E(ROHF) =  -299.190871882     A.U. after   26 cycles
 E2 =    -0.9203974580D+00 EUMP2 =    -0.30011126933953D+03
 CCSD(T)
 CCSD(T)= -0.30014790821D+03

 The electronic state is 2-A".
 Alpha  occ. eigenvalues --  -20.60592 -20.60132 -20.24856 -20.24778  -1.57423
 Alpha  occ. eigenvalues --   -1.27905  -0.96032  -0.70980  -0.66171  -0.62583
 Alpha  occ. eigenvalues --   -0.55014  -0.39375  -0.35828  -0.33892  -0.32228
 Alpha  occ. eigenvalues --   -0.06049  -0.02006
 Alpha virt. eigenvalues --    0.17404   0.55388   0.71372   0.82647   0.83114
 Alpha virt. eigenvalues --    0.86393   0.92436   0.94011   0.96698   0.99925
 Alpha virt. eigenvalues --    1.02869   1.04985   1.13657   1.13859   1.15797

 Mulliken charges and spin densities:
               1          2
     1  O   -0.050086   0.000089
     2  O    0.048464   0.000139
     3  O   -0.501562   0.498430
     4  O   -0.496816   0.501342
 Sum of Mulliken charges =  -1.00000   1.00000

 Dipole moment (field-independent basis, Debye):
    X=              0.7973    Y=            -10.1665    Z=              0.0000  Tot=             10.1977
 Quadrupole moment (field-independent basis, Debye-Ang):
   XX=            -23.4559   YY=            -50.1910   ZZ=            -20.6032
   XY=              2.5391   XZ=              0.0000   YZ=             -0.0000

 49556\CCSD=-300.1121341\CCSD(T)=-300.1479082\RMSD=5.367e-09\PG=CS [SG(
 Normal termination of Gaussian 16 at Sun Feb 18 01:53:28 2024.
