 Gaussian 16, Revision A.03,
 Gaussian 16:  ES64L-G16RevA.03 25-Dec-2016

 -----------------------------------------------
 #p ROCCSD(T,MaxCyc=200)/cc-pVTZ SCF(MaxCyc=200)
 -----------------------------------------------

 ---------
 O2_O2_258
 ---------
 Symbolic Z-matrix:
 Charge = -1 Multiplicity = 2

                         Standard orientation:
 ---------------------------------------------------------------------
 Center     Atomic      Atomic             Coordinates (Angstroms)
 Number     Number       Type             X           Y           Z
 ---------------------------------------------------------------------
      1          8           0        0.000000    0.000000    3.380000
      2          8           0        0.000000    0.000000    2.220000
      3          8           0        0.000000    0.000000   -2.220000
      4          8           0        0.000000    0.000000   -3.380000
 ---------------------------------------------------------------------

 SCF Done:  E(ROHF) =  -299.163857975     A.U. after   13 cycles
 E2 =    -0.9596107269D+00 EUMP2 =    -0.30012346870158D+03
 CCSD(T)
 CCSD(T)= -0.30014701289D+03

 Unable to determine electronic state:  an orbital has unidentified symmetry.
 Alpha  occ. eigenvalues --  -20.44264 -20.44264 -20.43863 -20.43863  -1.44004
 Alpha  occ. eigenvalues --   -1.44000  -0.84845  -0.84782  -0.52379  -0.52375
 Alpha  occ. eigenvalues --   -0.49606  -0.49538  -0.48427  -0.48199  -0.18512
 Alpha  occ. eigenvalues --   -0.18495  -0.00090
 Alpha virt. eigenvalues --    0.09656   0.61793   0.66075   0.91491   0.91589
 Alpha virt. eigenvalues --    0.92295   0.92297   0.92388   0.95173   1.03487
 Alpha virt. eigenvalues --    1.03849   1.03865   1.04056   1.04217   1.06189

 Mulliken charges and spin densities:
               1          2
     1  O   -0.273361   0.242687
     2  O   -0.226639   0.257313
     3  O   -0.226639   0.257313
     4  O   -0.273361   0.242687
 Sum of Mulliken charges =  -1.00000   1.00000

 Dipole moment (field-independent basis, Debye):
    X=             -0.0000    Y=              0.0000    Z=              0.0000  Tot=              0.0000
 Quadrupole moment (field-independent basis, Debye-Ang):
   XX=            -20.6715   YY=            -23.1854   ZZ=            -65.0757
   XY=              0.0000   XZ=              0.0000   YZ=              0.0000

 8\PMP2-0=-300.1234687\MP4SDQ=-300.1089269\CCSD=-300.1059342\CCSD(T)=-3
 Normal termination of Gaussian 16 at Sun Feb 18 04:25:48 2024.
