 Gaussian 16, Revision A.03,
 Gaussian 16:  ES64L-G16RevA.03 25-Dec-2016

 -----------------------------------------------
 #p ROCCSD(T,MaxCyc=200)/cc-pVTZ SCF(MaxCyc=200)
 -----------------------------------------------

 ---------
 O2_O2_207
 ---------
 Symbolic Z-matrix:
 Charge = -1 Multiplicity = 2

                         Standard orientation:
 ---------------------------------------------------------------------
 Center     Atomic      Atomic             Coordinates (Angstroms)
 Number     Number       Type             X           Y           Z
 ---------------------------------------------------------------------
      1          8           0        0.000000    0.000000    3.040000
      2          8           0        0.000000    0.000000    1.880000
      3          8           0        0.000000    0.000000   -1.880000
      4          8           0        0.000000    0.000000   -3.040000
 ---------------------------------------------------------------------

 SCF Done:  E(ROHF) =  -299.164552033     A.U. after   12 cycles
 E2 =    -0.9590323252D+00 EUMP2 =    -0.30012358435795D+03
 CCSD(T)
 CCSD(T)= -0.30014795527D+03

 Unable to determine electronic state:  an orbital has unidentified symmetry.
 Alpha  occ. eigenvalues --  -20.43674 -20.43674 -20.43134 -20.43134  -1.43351
 Alpha  occ. eigenvalues --   -1.43340  -0.84210  -0.84041  -0.51731  -0.51709
 Alpha  occ. eigenvalues --   -0.49020  -0.48723  -0.47824  -0.47469  -0.17884
 Alpha  occ. eigenvalues --   -0.17785  -0.00173
 Alpha virt. eigenvalues --    0.11142   0.59139   0.69613   0.89700   0.91882
 Alpha virt. eigenvalues --    0.92436   0.92684   0.93231   0.99161   1.03328
 Alpha virt. eigenvalues --    1.03735   1.04229   1.05450   1.05793   1.10705

 Mulliken charges and spin densities:
               1          2
     1  O   -0.279216   0.240850
     2  O   -0.220784   0.259150
     3  O   -0.220784   0.259150
     4  O   -0.279216   0.240850
 Sum of Mulliken charges =  -1.00000   1.00000

 Dipole moment (field-independent basis, Debye):
    X=             -0.0000    Y=              0.0000    Z=              0.0000  Tot=              0.0000
 Quadrupole moment (field-independent basis, Debye-Ang):
   XX=            -20.6833   YY=            -23.1887   ZZ=            -56.7343
   XY=              0.0000   XZ=              0.0000   YZ=              0.0000

 52\PMP2-0=-300.1235844\MP4SDQ=-300.1099138\CCSD=-300.1068401\CCSD(T)=-
 Normal termination of Gaussian 16 at Sun Feb 18 02:37:18 2024.
