 Gaussian 16, Revision A.03,
 Gaussian 16:  ES64L-G16RevA.03 25-Dec-2016

 -----------------------------------------------
 #p ROCCSD(T,MaxCyc=200)/cc-pVTZ SCF(MaxCyc=200)
 -----------------------------------------------

 --------
 O2_O2_71
 --------
 Symbolic Z-matrix:
 Charge = -1 Multiplicity = 2

                         Standard orientation:
 ---------------------------------------------------------------------
 Center     Atomic      Atomic             Coordinates (Angstroms)
 Number     Number       Type             X           Y           Z
 ---------------------------------------------------------------------
      1          8           0       -0.870000   -1.250000    0.000000
      2          8           0        0.290000   -1.250000    0.000000
      3          8           0        0.290000    0.670000    0.000000
      4          8           0        0.290000    1.830000    0.000000
 ---------------------------------------------------------------------

 SCF Done:  E(ROHF) =  -299.170802418     A.U. after   26 cycles
 E2 =    -0.9514231133D+00 EUMP2 =    -0.30012222553176D+03
 CCSD(T)
 CCSD(T)= -0.30017276080D+03

 The electronic state is 2-A".
 Alpha  occ. eigenvalues --  -20.48746 -20.46787 -20.30310 -20.30158  -1.45678
 Alpha  occ. eigenvalues --   -1.33061  -0.85639  -0.76815  -0.54788  -0.51512
 Alpha  occ. eigenvalues --   -0.47614  -0.44340  -0.39990  -0.33117  -0.20825
 Alpha  occ. eigenvalues --   -0.11069  -0.05661
 Alpha virt. eigenvalues --    0.28641   0.63862   0.75635   0.90281   0.90708
 Alpha virt. eigenvalues --    0.93451   0.99467   1.00827   1.02328   1.03351
 Alpha virt. eigenvalues --    1.08027   1.10700   1.14200   1.19569   1.22563

 Mulliken charges and spin densities:
               1          2
     1  O   -0.137978   0.000407
     2  O   -0.039737   0.001081
     3  O   -0.388982   0.453122
     4  O   -0.433303   0.545389
 Sum of Mulliken charges =  -1.00000   1.00000

 Dipole moment (field-independent basis, Debye):
    X=             -0.5284    Y=             -3.6177    Z=              0.0000  Tot=              3.6561
 Quadrupole moment (field-independent basis, Debye-Ang):
   XX=            -24.1156   YY=            -32.8200   ZZ=            -22.2151
   XY=             -2.2200   XZ=              0.0000   YZ=              0.0000

 47\CCSD(T)=-300.1727608\RMSD=6.810e-09\PG=CS [SG(O4)]\\@
 Normal termination of Gaussian 16 at Sat Feb 17 22:20:57 2024.
