 Gaussian 16, Revision A.03,
 Gaussian 16:  ES64L-G16RevA.03 25-Dec-2016

 -----------------------------------------------
 #p ROCCSD(T,MaxCyc=200)/cc-pVTZ SCF(MaxCyc=200)
 -----------------------------------------------

 ---------
 O2_O2_272
 ---------
 Symbolic Z-matrix:
 Charge = -1 Multiplicity = 2

                         Standard orientation:
 ---------------------------------------------------------------------
 Center     Atomic      Atomic             Coordinates (Angstroms)
 Number     Number       Type             X           Y           Z
 ---------------------------------------------------------------------
      1          8           0       -0.870000   -2.590000    0.000000
      2          8           0        0.290000   -2.590000    0.000000
      3          8           0        0.290000    2.010000    0.000000
      4          8           0        0.290000    3.170000    0.000000
 ---------------------------------------------------------------------

 SCF Done:  E(ROHF) =  -299.164840184     A.U. after   16 cycles
 E2 =    -0.9592533117D+00 EUMP2 =    -0.30012409349523D+03
 CCSD(T)
 CCSD(T)= -0.30014832780D+03

 The electronic state is 2-A'.
 Alpha  occ. eigenvalues --  -20.44349 -20.43909 -20.43707 -20.43595  -1.44032
 Alpha  occ. eigenvalues --   -1.43564  -0.84824  -0.84483  -0.52413  -0.51957
 Alpha  occ. eigenvalues --   -0.49606  -0.49272  -0.48269  -0.47905  -0.18540
 Alpha  occ. eigenvalues --   -0.18120  -0.00196
 Alpha virt. eigenvalues --    0.10157   0.63839   0.64106   0.91542   0.91669
 Alpha virt. eigenvalues --    0.92348   0.92746   0.93775   0.94224   1.03673
 Alpha virt. eigenvalues --    1.03922   1.03923   1.04406   1.05028   1.05341

 Mulliken charges and spin densities:
               1          2
     1  O   -0.256259   0.251414
     2  O   -0.249042   0.253914
     3  O   -0.222962   0.254819
     4  O   -0.271737   0.239852
 Sum of Mulliken charges =  -1.00000   1.00000

 Dipole moment (field-independent basis, Debye):
    X=              0.0318    Y=              0.0143    Z=              0.0000  Tot=              0.0349
 Quadrupole moment (field-independent basis, Debye-Ang):
   XX=            -23.5181   YY=            -56.5298   ZZ=            -23.1862
   XY=             -3.7528   XZ=              0.0000   YZ=              0.0000

 21\CCSD(T)=-300.1483278\RMSD=5.121e-09\PG=CS [SG(O4)]\\@
 Normal termination of Gaussian 16 at Sun Feb 18 04:58:48 2024.
