 Gaussian 16, Revision A.03,
 Gaussian 16:  ES64L-G16RevA.03 25-Dec-2016

 -----------------------------------------------
 #p ROCCSD(T,MaxCyc=200)/cc-pVTZ SCF(MaxCyc=200)
 -----------------------------------------------

 --------
 O2_O2_88
 --------
 Symbolic Z-matrix:
 Charge = -1 Multiplicity = 2

                         Standard orientation:
 ---------------------------------------------------------------------
 Center     Atomic      Atomic             Coordinates (Angstroms)
 Number     Number       Type             X           Y           Z
 ---------------------------------------------------------------------
      1          8           0        0.615183   -1.985183    0.000000
      2          8           0       -0.205061   -1.164939    0.000000
      3          8           0       -0.205061    0.995061   -0.000000
      4          8           0       -0.205061    2.155061   -0.000000
 ---------------------------------------------------------------------

 SCF Done:  E(ROHF) =  -299.183017768     A.U. after   37 cycles
 E2 =    -0.9358360572D+00 EUMP2 =    -0.30011885382564D+03
 CCSD(T)
 CCSD(T)= -0.30018136019D+03

 The electronic state is 2-A'.
 Alpha  occ. eigenvalues --  -20.53660 -20.52090 -20.28196 -20.27492  -1.50599
 Alpha  occ. eigenvalues --   -1.30776  -0.89565  -0.73850  -0.59389  -0.55763
 Alpha  occ. eigenvalues --   -0.48693  -0.41911  -0.37987  -0.35949  -0.25338
 Alpha  occ. eigenvalues --   -0.08633  -0.03609
 Alpha virt. eigenvalues --    0.23590   0.64757   0.74650   0.87782   0.87929
 Alpha virt. eigenvalues --    0.94241   0.95487   0.98571   1.03743   1.04140
 Alpha virt. eigenvalues --    1.07098   1.11046   1.15849   1.17855   1.20423

 Mulliken charges and spin densities:
               1          2
     1  O   -0.469080   0.498210
     2  O   -0.433919   0.501153
     3  O    0.067653  -0.000840
     4  O   -0.164653   0.001477
 Sum of Mulliken charges =  -1.00000   1.00000

 Dipole moment (field-independent basis, Debye):
    X=             -0.8639    Y=              5.5387    Z=             -0.0000  Tot=              5.6057
 Quadrupole moment (field-independent basis, Debye-Ang):
   XX=            -24.1264   YY=            -38.6501   ZZ=            -21.7168
   XY=              3.4781   XZ=             -0.0000   YZ=              0.0000

 3985\CCSD=-300.1479622\CCSD(T)=-300.1813602\RMSD=7.037e-09\PG=CS [SG(O
 Normal termination of Gaussian 16 at Sat Feb 17 22:55:06 2024.
