 Gaussian 16, Revision A.03,
 Gaussian 16:  ES64L-G16RevA.03 25-Dec-2016

 -----------------------------------------------
 #p ROCCSD(T,MaxCyc=200)/cc-pVTZ SCF(MaxCyc=200)
 -----------------------------------------------

 ---------
 O2_O2_176
 ---------
 Symbolic Z-matrix:
 Charge = -1 Multiplicity = 2

                         Standard orientation:
 ---------------------------------------------------------------------
 Center     Atomic      Atomic             Coordinates (Angstroms)
 Number     Number       Type             X           Y           Z
 ---------------------------------------------------------------------
      1          8           0       -0.870000   -1.950000    0.000000
      2          8           0        0.290000   -1.950000    0.000000
      3          8           0        0.290000    1.370000    0.000000
      4          8           0        0.290000    2.530000    0.000000
 ---------------------------------------------------------------------

 SCF Done:  E(ROHF) =  -299.169278152     A.U. after   15 cycles
 E2 =    -0.9577602720D+00 EUMP2 =    -0.30012703842413D+03
 CCSD(T)
 CCSD(T)= -0.30015315111D+03

 The electronic state is 2-A'.
 Alpha  occ. eigenvalues --  -20.43357 -20.42486 -20.42173 -20.42048  -1.42779
 Alpha  occ. eigenvalues --   -1.41958  -0.83479  -0.82920  -0.51169  -0.50378
 Alpha  occ. eigenvalues --   -0.48423  -0.47733  -0.46883  -0.46094  -0.17271
 Alpha  occ. eigenvalues --   -0.16560  -0.00670
 Alpha virt. eigenvalues --    0.13807   0.63683   0.65944   0.87215   0.92333
 Alpha virt. eigenvalues --    0.92647   0.94866   0.95277   1.00147   1.03494
 Alpha virt. eigenvalues --    1.04576   1.06017   1.06365   1.06638   1.11462

 Mulliken charges and spin densities:
               1          2
     1  O   -0.264832   0.249915
     2  O   -0.244308   0.260081
     3  O   -0.207144   0.256328
     4  O   -0.283716   0.233677
 Sum of Mulliken charges =  -1.00000   1.00000

 Dipole moment (field-independent basis, Debye):
    X=              0.0683    Y=             -0.0140    Z=              0.0000  Tot=              0.0697
 Quadrupole moment (field-independent basis, Debye-Ang):
   XX=            -23.5992   YY=            -42.7674   ZZ=            -23.1946
   XY=             -2.9393   XZ=              0.0000   YZ=              0.0000

 1\CCSD(T)=-300.1531511\RMSD=4.493e-09\PG=CS [SG(O4)]\\@
 Normal termination of Gaussian 16 at Sun Feb 18 01:43:29 2024.
