 Gaussian 16, Revision A.03,
 Gaussian 16:  ES64L-G16RevA.03 25-Dec-2016

 -----------------------------------------------
 #p ROCCSD(T,MaxCyc=200)/cc-pVTZ SCF(MaxCyc=200)
 -----------------------------------------------

 --------
 O2_O2_84
 --------
 Symbolic Z-matrix:
 Charge = -1 Multiplicity = 2

                         Standard orientation:
 ---------------------------------------------------------------------
 Center     Atomic      Atomic             Coordinates (Angstroms)
 Number     Number       Type             X           Y           Z
 ---------------------------------------------------------------------
      1          8           0        0.000000    0.000000    2.220000
      2          8           0        0.000000    0.000000    1.060000
      3          8           0        0.000000    0.000000   -1.060000
      4          8           0        0.000000    0.000000   -2.220000
 ---------------------------------------------------------------------

 SCF Done:  E(ROHF) =  -299.045475779     A.U. after   13 cycles
 E2 =    -0.1262434890D+01 EUMP2 =    -0.30030791066947D+03
 CCSD(T)
 CCSD(T)= -0.30019579728D+03

 Unable to determine electronic state:  an orbital has unidentified symmetry.
 Alpha  occ. eigenvalues --  -20.45843 -20.45841 -20.40772 -20.40772  -1.42869
 Alpha  occ. eigenvalues --   -1.42312  -0.85806  -0.80372  -0.53022  -0.51872
 Alpha  occ. eigenvalues --   -0.51051  -0.45806  -0.43503  -0.43161  -0.19351
 Alpha  occ. eigenvalues --   -0.16966  -0.01619
 Alpha virt. eigenvalues --    0.19661   0.69451   0.71708   0.89982   0.91804
 Alpha virt. eigenvalues --    0.95768   0.96977   0.98032   1.01287   1.03819
 Alpha virt. eigenvalues --    1.05301   1.11162   1.12878   1.16500   1.18340

 Mulliken charges and spin densities:
               1          2
     1  O   -0.362094   0.203934
     2  O   -0.137906   0.296066
     3  O   -0.137906   0.296066
     4  O   -0.362094   0.203934
 Sum of Mulliken charges =  -1.00000   1.00000

 Dipole moment (field-independent basis, Debye):
    X=             -0.0000    Y=              0.0000    Z=              0.0000  Tot=              0.0000
 Quadrupole moment (field-independent basis, Debye-Ang):
   XX=            -22.5503   YY=            -21.9787   ZZ=            -42.1430
   XY=              0.0000   XZ=              0.0000   YZ=              0.0000

 758\PMP2-0=-300.3079107\MP4SDQ=-299.9796273\CCSD=-300.1030334\CCSD(T)=
 Normal termination of Gaussian 16 at Sat Feb 17 22:46:14 2024.
