 Gaussian 16, Revision A.03,
 Gaussian 16:  ES64L-G16RevA.03 25-Dec-2016

 -----------------------------------------------
 #p ROCCSD(T,MaxCyc=200)/cc-pVTZ SCF(MaxCyc=200)
 -----------------------------------------------

 ---------
 O2_O2_118
 ---------
 Symbolic Z-matrix:
 Charge = -1 Multiplicity = 2

                         Standard orientation:
 ---------------------------------------------------------------------
 Center     Atomic      Atomic             Coordinates (Angstroms)
 Number     Number       Type             X           Y           Z
 ---------------------------------------------------------------------
      1          8           0        0.615183   -2.185183    0.000000
      2          8           0       -0.205061   -1.364939    0.000000
      3          8           0       -0.205061    1.195061    0.000000
      4          8           0       -0.205061    2.355061    0.000000
 ---------------------------------------------------------------------

 SCF Done:  E(ROHF) =  -299.166845130     A.U. after   22 cycles
 E2 =    -0.9573821122D+00 EUMP2 =    -0.30012422724249D+03
 CCSD(T)
 CCSD(T)= -0.30015185852D+03

 The electronic state is 2-A".
 Alpha  occ. eigenvalues --  -20.42091 -20.41704 -20.41206 -20.40544  -1.41590
 Alpha  occ. eigenvalues --   -1.41147  -0.83066  -0.81194  -0.50257  -0.49508
 Alpha  occ. eigenvalues --   -0.48087  -0.46161  -0.45236  -0.45048  -0.16145
 Alpha  occ. eigenvalues --   -0.15422  -0.00855
 Alpha virt. eigenvalues --    0.16232   0.66263   0.71332   0.91199   0.91234
 Alpha virt. eigenvalues --    0.93141   0.95558   0.97031   1.01231   1.02657
 Alpha virt. eigenvalues --    1.06232   1.08173   1.11335   1.12960   1.14407

 Mulliken charges and spin densities:
               1          2
     1  O   -0.292353   0.236225
     2  O   -0.200304   0.256628
     3  O   -0.195396   0.267799
     4  O   -0.311947   0.239348
 Sum of Mulliken charges =  -1.00000   1.00000

 Dipole moment (field-independent basis, Debye):
    X=             -0.1478    Y=             -0.2341    Z=             -0.0000  Tot=              0.2768
 Quadrupole moment (field-independent basis, Debye-Ang):
   XX=            -24.0748   YY=            -42.5345   ZZ=            -20.7562
   XY=              2.7937   XZ=             -0.0000   YZ=              0.0000

 36569\CCSD=-300.1104479\CCSD(T)=-300.1518585\RMSD=6.689e-09\PG=CS [SG(
 Normal termination of Gaussian 16 at Sat Feb 17 23:57:27 2024.
