 Gaussian 16, Revision A.03,
 Gaussian 16:  ES64L-G16RevA.03 25-Dec-2016

 -----------------------------------------------
 #p ROCCSD(T,MaxCyc=200)/cc-pVTZ SCF(MaxCyc=200)
 -----------------------------------------------

 --------
 O2_O2_35
 --------
 Symbolic Z-matrix:
 Charge = -1 Multiplicity = 2

                         Standard orientation:
 ---------------------------------------------------------------------
 Center     Atomic      Atomic             Coordinates (Angstroms)
 Number     Number       Type             X           Y           Z
 ---------------------------------------------------------------------
      1          8           0       -0.870000   -1.010000    0.000000
      2          8           0        0.290000   -1.010000    0.000000
      3          8           0        0.290000    0.430000    0.000000
      4          8           0        0.290000    1.590000    0.000000
 ---------------------------------------------------------------------

 SCF Done:  E(ROHF) =  -299.015005111     A.U. after   20 cycles
 E2 =    -0.9529281701D+00 EUMP2 =    -0.29996793328068D+03
 CCSD(T)
 CCSD(T)= -0.30001298410D+03

 The electronic state is 2-A".
 Alpha  occ. eigenvalues --  -20.48311 -20.34457 -20.33729 -20.31356  -1.45575
 Alpha  occ. eigenvalues --   -1.34922  -0.91385  -0.75435  -0.54849  -0.52486
 Alpha  occ. eigenvalues --   -0.47424  -0.45193  -0.42552  -0.20377  -0.17080
 Alpha  occ. eigenvalues --   -0.11642  -0.10021
 Alpha virt. eigenvalues --    0.37468   0.67204   0.73309   0.87278   0.93578
 Alpha virt. eigenvalues --    0.96134   0.99278   1.00771   1.05744   1.07540
 Alpha virt. eigenvalues --    1.11750   1.14370   1.15923   1.16892   1.28237

 Mulliken charges and spin densities:
               1          2
     1  O   -0.427981   0.001376
     2  O    0.038663   0.012506
     3  O   -0.210459   0.430684
     4  O   -0.400223   0.555435
 Sum of Mulliken charges =  -1.00000   1.00000

 Dipole moment (field-independent basis, Debye):
    X=              1.2021    Y=             -1.0851    Z=              0.0000  Tot=              1.6194
 Quadrupole moment (field-independent basis, Debye-Ang):
   XX=            -25.0246   YY=            -31.2567   ZZ=            -21.9600
   XY=             -3.2583   XZ=              0.0000   YZ=              0.0000

 2\CCSD(T)=-300.0129841\RMSD=7.531e-09\PG=CS [SG(O4)]\\@
 Normal termination of Gaussian 16 at Sat Feb 17 21:08:37 2024.
