 Gaussian 16, Revision A.03,
 Gaussian 16:  ES64L-G16RevA.03 25-Dec-2016

 -----------------------------------------------
 #p ROCCSD(T,MaxCyc=200)/cc-pVTZ SCF(MaxCyc=200)
 -----------------------------------------------

 --------
 O2_O2_94
 --------
 Symbolic Z-matrix:
 Charge = -1 Multiplicity = 2

                         Standard orientation:
 ---------------------------------------------------------------------
 Center     Atomic      Atomic             Coordinates (Angstroms)
 Number     Number       Type             X           Y           Z
 ---------------------------------------------------------------------
      1          8           0        0.615183   -2.025183    0.000000
      2          8           0       -0.205061   -1.204939    0.000000
      3          8           0       -0.205061    1.035061   -0.000000
      4          8           0       -0.205061    2.195061   -0.000000
 ---------------------------------------------------------------------

 SCF Done:  E(ROHF) =  -299.186187757     A.U. after   19 cycles
 E2 =    -0.9329464301D+00 EUMP2 =    -0.30011913418694D+03
 CCSD(T)
 CCSD(T)= -0.30017904616D+03

 The electronic state is 2-A'.
 Alpha  occ. eigenvalues --  -20.54446 -20.53010 -20.27676 -20.27147  -1.51345
 Alpha  occ. eigenvalues --   -1.30351  -0.90114  -0.73456  -0.60125  -0.56343
 Alpha  occ. eigenvalues --   -0.49330  -0.41596  -0.37702  -0.35761  -0.26084
 Alpha  occ. eigenvalues --   -0.08298  -0.03397
 Alpha virt. eigenvalues --    0.22985   0.64147   0.74570   0.87289   0.87354
 Alpha virt. eigenvalues --    0.93288   0.95295   0.98249   1.03202   1.03975
 Alpha virt. eigenvalues --    1.06925   1.10418   1.15748   1.16729   1.20025

 Mulliken charges and spin densities:
               1          2
     1  O   -0.471622   0.500896
     2  O   -0.446960   0.498316
     3  O    0.069804  -0.000383
     4  O   -0.151222   0.001171
 Sum of Mulliken charges =  -1.00000   1.00000

 Dipole moment (field-independent basis, Debye):
    X=             -0.8769    Y=              5.9271    Z=             -0.0000  Tot=              5.9916
 Quadrupole moment (field-independent basis, Debye-Ang):
   XX=            -24.1330   YY=            -39.1205   ZZ=            -21.7078
   XY=              3.5002   XZ=             -0.0000   YZ=              0.0000

 9055\CCSD=-300.1511105\CCSD(T)=-300.1790462\RMSD=3.254e-09\PG=CS [SG(O
 Normal termination of Gaussian 16 at Sat Feb 17 23:08:47 2024.
