 Gaussian 16, Revision A.03,
 Gaussian 16:  ES64L-G16RevA.03 25-Dec-2016

 -----------------------------------------------
 #p ROCCSD(T,MaxCyc=200)/cc-pVTZ SCF(MaxCyc=200)
 -----------------------------------------------

 ---------
 O2_O2_141
 ---------
 Symbolic Z-matrix:
 Charge = -1 Multiplicity = 2

                         Standard orientation:
 ---------------------------------------------------------------------
 Center     Atomic      Atomic             Coordinates (Angstroms)
 Number     Number       Type             X           Y           Z
 ---------------------------------------------------------------------
      1          8           0        0.000000    0.000000    2.600000
      2          8           0        0.000000    0.000000    1.440000
      3          8           0        0.000000    0.000000   -1.440000
      4          8           0        0.000000    0.000000   -2.600000
 ---------------------------------------------------------------------

 SCF Done:  E(ROHF) =  -299.167888892     A.U. after   12 cycles
 E2 =    -0.9579537852D+00 EUMP2 =    -0.30012584267677D+03
 CCSD(T)
 CCSD(T)= -0.30015205413D+03

 Unable to determine electronic state:  an orbital has unidentified symmetry.
 Alpha  occ. eigenvalues --  -20.42740 -20.42739 -20.41813 -20.41813  -1.42253
 Alpha  occ. eigenvalues --   -1.42180  -0.83409  -0.82438  -0.50682  -0.50499
 Alpha  occ. eigenvalues --   -0.48534  -0.46847  -0.46732  -0.46064  -0.16996
 Alpha  occ. eigenvalues --   -0.16350  -0.00609
 Alpha virt. eigenvalues --    0.14210   0.63466   0.71865   0.89553   0.91454
 Alpha virt. eigenvalues --    0.92137   0.94310   0.95052   1.01638   1.02108
 Alpha virt. eigenvalues --    1.03452   1.07825   1.11490   1.11696   1.11910

 Mulliken charges and spin densities:
               1          2
     1  O   -0.295008   0.237704
     2  O   -0.204992   0.262296
     3  O   -0.204992   0.262296
     4  O   -0.295008   0.237704
 Sum of Mulliken charges =  -1.00000   1.00000

 Dipole moment (field-independent basis, Debye):
    X=             -0.0000    Y=             -0.0000    Z=             -0.0000  Tot=              0.0000
 Quadrupole moment (field-independent basis, Debye-Ang):
   XX=            -23.1965   YY=            -20.7314   ZZ=            -47.6838
   XY=              0.0000   XZ=              0.0000   YZ=             -0.0000

 Normal termination of Gaussian 16 at Sun Feb 18 00:38:00 2024.
