 Gaussian 16, Revision A.03,
 Gaussian 16:  ES64L-G16RevA.03 25-Dec-2016

 -----------------------------------------------
 #p ROCCSD(T,MaxCyc=200)/cc-pVTZ SCF(MaxCyc=200)
 -----------------------------------------------

 ---------
 O2_O2_240
 ---------
 Symbolic Z-matrix:
 Charge = -1 Multiplicity = 2

                         Standard orientation:
 ---------------------------------------------------------------------
 Center     Atomic      Atomic             Coordinates (Angstroms)
 Number     Number       Type             X           Y           Z
 ---------------------------------------------------------------------
      1          8           0        0.000000    0.000000    3.260000
      2          8           0        0.000000    0.000000    2.100000
      3          8           0        0.000000    0.000000   -2.100000
      4          8           0        0.000000    0.000000   -3.260000
 ---------------------------------------------------------------------

 SCF Done:  E(ROHF) =  -299.163999626     A.U. after   13 cycles
 E2 =    -0.9594146698D+00 EUMP2 =    -0.30012341429611D+03
 CCSD(T)
 CCSD(T)= -0.30014721275D+03

 Unable to determine electronic state:  an orbital has unidentified symmetry.
 Alpha  occ. eigenvalues --  -20.44067 -20.44067 -20.43626 -20.43626  -1.43790
 Alpha  occ. eigenvalues --   -1.43784  -0.84632  -0.84547  -0.52165  -0.52158
 Alpha  occ. eigenvalues --   -0.49403  -0.49286  -0.48228  -0.47965  -0.18301
 Alpha  occ. eigenvalues --   -0.18268  -0.00108
 Alpha virt. eigenvalues --    0.10126   0.60850   0.67281   0.91551   0.91654
 Alpha virt. eigenvalues --    0.91840   0.92459   0.92639   0.96361   1.03538
 Alpha virt. eigenvalues --    1.03922   1.03972   1.04250   1.04613   1.07395

 Mulliken charges and spin densities:
               1          2
     1  O   -0.275334   0.242087
     2  O   -0.224666   0.257913
     3  O   -0.224666   0.257913
     4  O   -0.275334   0.242087
 Sum of Mulliken charges =  -1.00000   1.00000

 Dipole moment (field-independent basis, Debye):
    X=             -0.0000    Y=              0.0000    Z=              0.0000  Tot=              0.0000
 Quadrupole moment (field-independent basis, Debye-Ang):
   XX=            -20.6743   YY=            -23.1864   ZZ=            -61.9998
   XY=              0.0000   XZ=              0.0000   YZ=              0.0000

 996\PMP2-0=-300.1234143\MP4SDQ=-300.1091448\CCSD=-300.1061274\CCSD(T)=
 Normal termination of Gaussian 16 at Sun Feb 18 03:48:40 2024.
