 Gaussian 16, Revision A.03,
 Gaussian 16:  ES64L-G16RevA.03 25-Dec-2016

 -----------------------------------------------
 #p ROCCSD(T,MaxCyc=200)/cc-pVTZ SCF(MaxCyc=200)
 -----------------------------------------------

 ---------
 O2_O2_178
 ---------
 Symbolic Z-matrix:
 Charge = -1 Multiplicity = 2

                         Standard orientation:
 ---------------------------------------------------------------------
 Center     Atomic      Atomic             Coordinates (Angstroms)
 Number     Number       Type             X           Y           Z
 ---------------------------------------------------------------------
      1          8           0        0.615183   -2.585183    0.000000
      2          8           0       -0.205061   -1.764939    0.000000
      3          8           0       -0.205061    1.595061   -0.000000
      4          8           0       -0.205061    2.755061   -0.000000
 ---------------------------------------------------------------------

 SCF Done:  E(ROHF) =  -299.190869714     A.U. after   30 cycles
 E2 =    -0.9204242970D+00 EUMP2 =    -0.30011129401133D+03
 CCSD(T)
 CCSD(T)= -0.30014796198D+03

 The electronic state is 2-A".
 Alpha  occ. eigenvalues --  -20.60466 -20.60000 -20.24867 -20.24789  -1.57297
 Alpha  occ. eigenvalues --   -1.27916  -0.95904  -0.70991  -0.66044  -0.62452
 Alpha  occ. eigenvalues --   -0.54891  -0.39384  -0.35838  -0.33904  -0.32096
 Alpha  occ. eigenvalues --   -0.06058  -0.02016
 Alpha virt. eigenvalues --    0.17529   0.55541   0.71413   0.82754   0.83232
 Alpha virt. eigenvalues --    0.86534   0.92545   0.94069   0.96755   0.99996
 Alpha virt. eigenvalues --    1.02901   1.04997   1.13704   1.14351   1.15823

 Mulliken charges and spin densities:
               1          2
     1  O   -0.051126   0.000104
     2  O    0.049255   0.000163
     3  O   -0.501585   0.498258
     4  O   -0.496544   0.501475
 Sum of Mulliken charges =  -1.00000   1.00000

 Dipole moment (field-independent basis, Debye):
    X=              0.7935    Y=            -10.0601    Z=              0.0000  Tot=             10.0914
 Quadrupole moment (field-independent basis, Debye-Ang):
   XX=            -23.4587   YY=            -49.7864   ZZ=            -20.6037
   XY=              2.5252   XZ=             -0.0000   YZ=              0.0000

 788\CCSD=-300.1121684\CCSD(T)=-300.147962\RMSD=6.600e-09\PG=CS [SG(O4)
 Normal termination of Gaussian 16 at Sun Feb 18 01:47:27 2024.
