 Gaussian 16, Revision A.03,
 Gaussian 16:  ES64L-G16RevA.03 25-Dec-2016

 -----------------------------------------------
 #p ROCCSD(T,MaxCyc=200)/cc-pVTZ SCF(MaxCyc=200)
 -----------------------------------------------

 -------
 O2_O2_7
 -------
 Symbolic Z-matrix:
 Charge = -1 Multiplicity = 2

                         Standard orientation:
 ---------------------------------------------------------------------
 Center     Atomic      Atomic             Coordinates (Angstroms)
 Number     Number       Type             X           Y           Z
 ---------------------------------------------------------------------
      1          8           0        0.615183   -1.445183    0.000000
      2          8           0       -0.205061   -0.624939    0.000000
      3          8           0       -0.205061    0.455061   -0.000000
      4          8           0       -0.205061    1.615061   -0.000000
 ---------------------------------------------------------------------

 SCF Done:  E(ROHF) =  -298.867435088     A.U. after   17 cycles
 E2 =    -0.9266375961D+00 EUMP2 =    -0.29979407268364D+03
 CCSD(T)
 CCSD(T)= -0.29982756991D+03

 The electronic state is 2-A".
 Alpha  occ. eigenvalues --  -20.51534 -20.44474 -20.31835 -20.27454  -1.63391
 Alpha  occ. eigenvalues --   -1.35527  -1.15409  -0.70215  -0.69235  -0.61135
 Alpha  occ. eigenvalues --   -0.54116  -0.43837  -0.39793  -0.20946  -0.19569
 Alpha  occ. eigenvalues --   -0.10209  -0.05352
 Alpha virt. eigenvalues --    0.54541   0.72389   0.79194   0.89241   0.90364
 Alpha virt. eigenvalues --    0.91584   0.95469   1.01963   1.05595   1.08016
 Alpha virt. eigenvalues --    1.09729   1.12754   1.17231   1.17999   1.25148

 Mulliken charges and spin densities:
               1          2
     1  O   -0.656798   0.118843
     2  O    0.164113   0.332078
     3  O    0.051490   0.401577
     4  O   -0.558805   0.147502
 Sum of Mulliken charges =  -1.00000   1.00000

 Dipole moment (field-independent basis, Debye):
    X=             -1.2258    Y=              0.1149    Z=             -0.0000  Tot=              1.2312
 Quadrupole moment (field-independent basis, Debye-Ang):
   XX=            -24.1363   YY=            -37.8849   ZZ=            -21.4537
   XY=              3.8947   XZ=             -0.0000   YZ=              0.0000

 51\CCSD=-299.7922198\CCSD(T)=-299.8275699\RMSD=1.077e-09\PG=CS [SG(O4)
 Normal termination of Gaussian 16 at Sat Feb 17 20:21:11 2024.
