 Gaussian 16, Revision A.03,
 Gaussian 16:  ES64L-G16RevA.03 25-Dec-2016

 -----------------------------------------------
 #p ROCCSD(T,MaxCyc=200)/cc-pVTZ SCF(MaxCyc=200)
 -----------------------------------------------

 --------
 O2_O2_65
 --------
 Symbolic Z-matrix:
 Charge = -1 Multiplicity = 2

                         Standard orientation:
 ---------------------------------------------------------------------
 Center     Atomic      Atomic             Coordinates (Angstroms)
 Number     Number       Type             X           Y           Z
 ---------------------------------------------------------------------
      1          8           0       -0.870000   -1.210000    0.000000
      2          8           0        0.290000   -1.210000    0.000000
      3          8           0        0.290000    0.630000    0.000000
      4          8           0        0.290000    1.790000    0.000000
 ---------------------------------------------------------------------

 SCF Done:  E(ROHF) =  -299.158335177     A.U. after   25 cycles
 E2 =    -0.9550708297D+00 EUMP2 =    -0.30011340600637D+03
 CCSD(T)
 CCSD(T)= -0.30016142604D+03

 The electronic state is 2-A".
 Alpha  occ. eigenvalues --  -20.48024 -20.45279 -20.30778 -20.30546  -1.44942
 Alpha  occ. eigenvalues --   -1.33500  -0.85367  -0.77197  -0.54060  -0.50701
 Alpha  occ. eigenvalues --   -0.48027  -0.44729  -0.40375  -0.31717  -0.19972
 Alpha  occ. eigenvalues --   -0.11469  -0.06102
 Alpha virt. eigenvalues --    0.29644   0.64440   0.75430   0.89821   0.91454
 Alpha virt. eigenvalues --    0.93960   0.99851   1.00792   1.03019   1.03920
 Alpha virt. eigenvalues --    1.08928   1.11396   1.14290   1.19167   1.23889

 Mulliken charges and spin densities:
               1          2
     1  O   -0.160090   0.000474
     2  O   -0.040285   0.001413
     3  O   -0.373099   0.447680
     4  O   -0.426526   0.550432
 Sum of Mulliken charges =  -1.00000   1.00000

 Dipole moment (field-independent basis, Debye):
    X=             -0.3890    Y=             -3.2437    Z=              0.0000  Tot=              3.2669
 Quadrupole moment (field-independent basis, Debye-Ang):
   XX=            -24.1803   YY=            -32.4719   ZZ=            -22.1971
   XY=             -2.2481   XZ=              0.0000   YZ=              0.0000

 Normal termination of Gaussian 16 at Sat Feb 17 22:09:19 2024.
