 Gaussian 16, Revision A.03,
 Gaussian 16:  ES64L-G16RevA.03 25-Dec-2016

 -----------------------------------------------
 #p ROCCSD(T,MaxCyc=200)/cc-pVTZ SCF(MaxCyc=200)
 -----------------------------------------------

 --------
 O2_O2_43
 --------
 Symbolic Z-matrix:
 Charge = -1 Multiplicity = 2

                         Standard orientation:
 ---------------------------------------------------------------------
 Center     Atomic      Atomic             Coordinates (Angstroms)
 Number     Number       Type             X           Y           Z
 ---------------------------------------------------------------------
      1          8           0        0.615183   -1.685183    0.000000
      2          8           0       -0.205061   -0.864939    0.000000
      3          8           0       -0.205061    0.695062   -0.000000
      4          8           0       -0.205061    1.855060   -0.000000
 ---------------------------------------------------------------------

 SCF Done:  E(ROHF) =  -299.098142339     A.U. after   22 cycles
 E2 =    -0.9482648994D+00 EUMP2 =    -0.30004640723871D+03
 CCSD(T)
 CCSD(T)= -0.30008882252D+03

 The electronic state is 2-A".
 Alpha  occ. eigenvalues --  -20.49402 -20.40348 -20.31998 -20.31676  -1.44490
 Alpha  occ. eigenvalues --   -1.34866  -0.92747  -0.73450  -0.54239  -0.52343
 Alpha  occ. eigenvalues --   -0.47412  -0.45881  -0.40905  -0.28019  -0.20277
 Alpha  occ. eigenvalues --   -0.11048  -0.08520
 Alpha virt. eigenvalues --    0.33026   0.69703   0.75684   0.92102   0.93008
 Alpha virt. eigenvalues --    0.95066   0.99280   1.01420   1.02674   1.05211
 Alpha virt. eigenvalues --    1.06532   1.12972   1.15401   1.19948   1.25936

 Mulliken charges and spin densities:
               1          2
     1  O   -0.324824   0.002605
     2  O    0.073945   0.006982
     3  O   -0.322772   0.445620
     4  O   -0.426349   0.544793
 Sum of Mulliken charges =  -1.00000   1.00000

 Dipole moment (field-independent basis, Debye):
    X=             -0.1432    Y=             -2.3039    Z=              0.0000  Tot=              2.3084
 Quadrupole moment (field-independent basis, Debye-Ang):
   XX=            -23.4656   YY=            -36.3929   ZZ=            -22.0554
   XY=              3.4314   XZ=             -0.0000   YZ=              0.0000

 31\CCSD=-300.0428852\CCSD(T)=-300.0888225\RMSD=9.017e-10\PG=CS [SG(O4)
 Normal termination of Gaussian 16 at Sat Feb 17 21:23:29 2024.
