 Gaussian 16, Revision A.03,
 Gaussian 16:  ES64L-G16RevA.03 25-Dec-2016

 -----------------------------------------------
 #p ROCCSD(T,MaxCyc=200)/cc-pVTZ SCF(MaxCyc=200)
 -----------------------------------------------

 ---------
 O2_O2_166
 ---------
 Symbolic Z-matrix:
 Charge = -1 Multiplicity = 2

                         Standard orientation:
 ---------------------------------------------------------------------
 Center     Atomic      Atomic             Coordinates (Angstroms)
 Number     Number       Type             X           Y           Z
 ---------------------------------------------------------------------
      1          8           0        0.615183   -2.505183    0.000000
      2          8           0       -0.205061   -1.684939    0.000000
      3          8           0       -0.205061    1.515061   -0.000000
      4          8           0       -0.205061    2.675061   -0.000000
 ---------------------------------------------------------------------

 SCF Done:  E(ROHF) =  -299.165598955     A.U. after   24 cycles
 E2 =    -0.9584867074D+00 EUMP2 =    -0.30012408566229D+03
 CCSD(T)
 CCSD(T)= -0.30014998256D+03

 The electronic state is 2-A".
 Alpha  occ. eigenvalues --  -20.43184 -20.42585 -20.42569 -20.41831  -1.42742
 Alpha  occ. eigenvalues --   -1.42206  -0.83594  -0.82877  -0.51128  -0.50570
 Alpha  occ. eigenvalues --   -0.48482  -0.47458  -0.47062  -0.46453  -0.17227
 Alpha  occ. eigenvalues --   -0.16651  -0.00307
 Alpha virt. eigenvalues --    0.13135   0.61863   0.69500   0.88625   0.91908
 Alpha virt. eigenvalues --    0.92606   0.93784   0.95005   0.99338   1.03085
 Alpha virt. eigenvalues --    1.04241   1.05513   1.07743   1.08754   1.11482

 Mulliken charges and spin densities:
               1          2
     1  O   -0.277499   0.237444
     2  O   -0.213741   0.254977
     3  O   -0.216754   0.265679
     4  O   -0.292006   0.241901
 Sum of Mulliken charges =  -1.00000   1.00000

 Dipole moment (field-independent basis, Debye):
    X=             -0.1005    Y=             -0.2636    Z=             -0.0000  Tot=              0.2821
 Quadrupole moment (field-independent basis, Debye-Ang):
   XX=            -24.0216   YY=            -48.0589   ZZ=            -20.7050
   XY=              3.0026   XZ=             -0.0000   YZ=              0.0000

 698\CCSD=-300.1096419\CCSD(T)=-300.1499826\RMSD=6.146e-09\PG=CS [SG(O4
 Normal termination of Gaussian 16 at Sun Feb 18 01:24:42 2024.
