 Gaussian 16, Revision A.03,
 Gaussian 16:  ES64L-G16RevA.03 25-Dec-2016

 -----------------------------------------------
 #p ROCCSD(T,MaxCyc=200)/cc-pVTZ SCF(MaxCyc=200)
 -----------------------------------------------

 ---------
 O2_O2_151
 ---------
 Symbolic Z-matrix:
 Charge = -1 Multiplicity = 2

                         Standard orientation:
 ---------------------------------------------------------------------
 Center     Atomic      Atomic             Coordinates (Angstroms)
 Number     Number       Type             X           Y           Z
 ---------------------------------------------------------------------
      1          8           0        0.615183   -2.405183   -0.000000
      2          8           0       -0.205061   -1.584939   -0.000000
      3          8           0       -0.205061    1.415061    0.000000
      4          8           0       -0.205061    2.575061    0.000000
 ---------------------------------------------------------------------

 SCF Done:  E(ROHF) =  -299.166223826     A.U. after   17 cycles
 E2 =    -0.9581902555D+00 EUMP2 =    -0.30012441408185D+03
 CCSD(T)
 CCSD(T)= -0.30015084819D+03

 The electronic state is 2-A".
 Alpha  occ. eigenvalues --  -20.42913 -20.42324 -20.42219 -20.41465  -1.42434
 Alpha  occ. eigenvalues --   -1.41897  -0.83362  -0.82469  -0.50853  -0.50257
 Alpha  occ. eigenvalues --   -0.48312  -0.46948  -0.46790  -0.46081  -0.16926
 Alpha  occ. eigenvalues --   -0.16317  -0.00416
 Alpha virt. eigenvalues --    0.13947   0.63109   0.69992   0.89154   0.91714
 Alpha virt. eigenvalues --    0.92248   0.94300   0.95594   0.99819   1.02762
 Alpha virt. eigenvalues --    1.04656   1.06433   1.08785   1.10302   1.11560

 Mulliken charges and spin densities:
               1          2
     1  O   -0.280875   0.236713
     2  O   -0.210164   0.255387
     3  O   -0.212642   0.266699
     4  O   -0.296319   0.241201
 Sum of Mulliken charges =  -1.00000   1.00000

 Dipole moment (field-independent basis, Debye):
    X=             -0.1121    Y=             -0.2659    Z=              0.0000  Tot=              0.2886
 Quadrupole moment (field-independent basis, Debye-Ang):
   XX=            -24.0329   YY=            -46.2014   ZZ=            -20.7178
   XY=              2.9313   XZ=             -0.0000   YZ=             -0.0000

 17\CCSD=-300.1098775\CCSD(T)=-300.1508482\RMSD=2.006e-09\PG=CS [SG(O4)
 Normal termination of Gaussian 16 at Sun Feb 18 00:56:46 2024.
