 Gaussian 16, Revision A.03,
 Gaussian 16:  ES64L-G16RevA.03 25-Dec-2016

 -----------------------------------------------
 #p ROCCSD(T,MaxCyc=200)/cc-pVTZ SCF(MaxCyc=200)
 -----------------------------------------------

 ---------
 O2_O2_131
 ---------
 Symbolic Z-matrix:
 Charge = -1 Multiplicity = 2

                         Standard orientation:
 ---------------------------------------------------------------------
 Center     Atomic      Atomic             Coordinates (Angstroms)
 Number     Number       Type             X           Y           Z
 ---------------------------------------------------------------------
      1          8           0       -0.870000   -1.650000    0.000000
      2          8           0        0.290000   -1.650000    0.000000
      3          8           0        0.290000    1.070000    0.000000
      4          8           0        0.290000    2.230000    0.000000
 ---------------------------------------------------------------------

 SCF Done:  E(ROHF) =  -299.174201021     A.U. after   15 cycles
 E2 =    -0.9571863721D+00 EUMP2 =    -0.30013138739293D+03
 CCSD(T)
 CCSD(T)= -0.30015927981D+03

 The electronic state is 2-A'.
 Alpha  occ. eigenvalues --  -20.42998 -20.41654 -20.40907 -20.40795  -1.42135
 Alpha  occ. eigenvalues --   -1.40683  -0.82828  -0.81687  -0.50552  -0.49101
 Alpha  occ. eigenvalues --   -0.48438  -0.46563  -0.46027  -0.44094  -0.16625
 Alpha  occ. eigenvalues --   -0.15302  -0.01432
 Alpha virt. eigenvalues --    0.16817   0.65454   0.68486   0.89463   0.91570
 Alpha virt. eigenvalues --    0.92458   0.96334   0.96508   1.00568   1.02478
 Alpha virt. eigenvalues --    1.05378   1.06249   1.08261   1.09479   1.13126

 Mulliken charges and spin densities:
               1          2
     1  O   -0.277396   0.246713
     2  O   -0.241386   0.272399
     3  O   -0.187261   0.253869
     4  O   -0.293957   0.227018
 Sum of Mulliken charges =  -1.00000   1.00000

 Dipole moment (field-independent basis, Debye):
    X=              0.1347    Y=              0.0579    Z=              0.0000  Tot=              0.1466
 Quadrupole moment (field-independent basis, Debye-Ang):
   XX=            -23.6905   YY=            -37.7563   ZZ=            -23.2016
   XY=             -2.5623   XZ=              0.0000   YZ=              0.0000

 5\CCSD(T)=-300.1592798\RMSD=4.094e-09\PG=CS [SG(O4)]\\@
 Normal termination of Gaussian 16 at Sun Feb 18 00:20:26 2024.
