 Gaussian 16, Revision A.03,
 Gaussian 16:  ES64L-G16RevA.03 25-Dec-2016

 -----------------------------------------------
 #p ROCCSD(T,MaxCyc=200)/cc-pVTZ SCF(MaxCyc=200)
 -----------------------------------------------

 --------
 O2_O2_54
 --------
 Symbolic Z-matrix:
 Charge = -1 Multiplicity = 2

                         Standard orientation:
 ---------------------------------------------------------------------
 Center     Atomic      Atomic             Coordinates (Angstroms)
 Number     Number       Type             X           Y           Z
 ---------------------------------------------------------------------
      1          8           0        0.000000    0.000000    2.020000
      2          8           0        0.000000    0.000000    0.860000
      3          8           0        0.000000    0.000000   -0.860000
      4          8           0        0.000000    0.000000   -2.020000
 ---------------------------------------------------------------------

 SCF Done:  E(ROHF) =  -299.041524230     A.U. after   11 cycles
 E2 =    -0.1173667065D+01 EUMP2 =    -0.30021519129500D+03
 CCSD(T)
 CCSD(T)= -0.30016175141D+03

 Unable to determine electronic state:  an orbital has unidentified symmetry.
 Alpha  occ. eigenvalues --  -20.45683 -20.45680 -20.38111 -20.38110  -1.42789
 Alpha  occ. eigenvalues --   -1.40935  -0.90617  -0.76420  -0.53507  -0.53140
 Alpha  occ. eigenvalues --   -0.50196  -0.46307  -0.41510  -0.35854  -0.19687
 Alpha  occ. eigenvalues --   -0.14504  -0.03786
 Alpha virt. eigenvalues --    0.24101   0.71107   0.71948   0.91281   0.93193
 Alpha virt. eigenvalues --    0.97317   0.98475   0.99743   1.04230   1.04803
 Alpha virt. eigenvalues --    1.06911   1.12375   1.13867   1.21978   1.24384

 Mulliken charges and spin densities:
               1          2
     1  O   -0.409728   0.185210
     2  O   -0.090272   0.314790
     3  O   -0.090272   0.314790
     4  O   -0.409728   0.185210
 Sum of Mulliken charges =  -1.00000   1.00000

 Dipole moment (field-independent basis, Debye):
    X=             -0.0000    Y=             -0.0000    Z=              0.0000  Tot=              0.0000
 Quadrupole moment (field-independent basis, Debye-Ang):
   XX=            -21.9426   YY=            -22.4961   ZZ=            -40.6089
   XY=              0.0000   XZ=              0.0000   YZ=              0.0000

 242\PMP2-0=-300.2151913\MP4SDQ=-300.0527769\CCSD=-300.0816248\CCSD(T)=
 Normal termination of Gaussian 16 at Sat Feb 17 21:45:16 2024.
