 Gaussian 16, Revision A.03,
 Gaussian 16:  ES64L-G16RevA.03 25-Dec-2016

 -----------------------------------------------
 #p ROCCSD(T,MaxCyc=200)/cc-pVTZ SCF(MaxCyc=200)
 -----------------------------------------------

 --------
 O2_O2_80
 --------
 Symbolic Z-matrix:
 Charge = -1 Multiplicity = 2

                         Standard orientation:
 ---------------------------------------------------------------------
 Center     Atomic      Atomic             Coordinates (Angstroms)
 Number     Number       Type             X           Y           Z
 ---------------------------------------------------------------------
      1          8           0       -0.870000   -1.310000    0.000000
      2          8           0        0.290000   -1.310000    0.000000
      3          8           0        0.290000    0.730000    0.000000
      4          8           0        0.290000    1.890000    0.000000
 ---------------------------------------------------------------------

 SCF Done:  E(ROHF) =  -299.183441400     A.U. after   22 cycles
 E2 =    -0.9461771299D+00 EUMP2 =    -0.30012961852993D+03
 CCSD(T)
 CCSD(T)= -0.30018379506D+03

 The electronic state is 2-A".
 Alpha  occ. eigenvalues --  -20.49947 -20.48714 -20.29647 -20.29560  -1.46860
 Alpha  occ. eigenvalues --   -1.32407  -0.86437  -0.76061  -0.55958  -0.52736
 Alpha  occ. eigenvalues --   -0.47296  -0.43734  -0.39454  -0.34619  -0.22096
 Alpha  occ. eigenvalues --   -0.10456  -0.05103
 Alpha virt. eigenvalues --    0.27298   0.62999   0.75837   0.89632   0.90895
 Alpha virt. eigenvalues --    0.92666   0.98625   1.00810   1.01204   1.02611
 Alpha virt. eigenvalues --    1.06832   1.09234   1.14081   1.19889   1.21277

 Mulliken charges and spin densities:
               1          2
     1  O   -0.111681   0.000325
     2  O   -0.035095   0.000810
     3  O   -0.410528   0.460331
     4  O   -0.442697   0.538534
 Sum of Mulliken charges =  -1.00000   1.00000

 Dipole moment (field-independent basis, Debye):
    X=             -0.6911    Y=             -4.1689    Z=              0.0000  Tot=              4.2258
 Quadrupole moment (field-independent basis, Debye-Ang):
   XX=            -24.0326   YY=            -33.4045   ZZ=            -22.2326
   XY=             -2.2191   XZ=              0.0000   YZ=              0.0000

 \CCSD(T)=-300.1837951\RMSD=9.848e-09\PG=CS [SG(O4)]\\@
 Normal termination of Gaussian 16 at Sat Feb 17 22:38:55 2024.
