 Gaussian 16, Revision A.03,
 Gaussian 16:  ES64L-G16RevA.03 25-Dec-2016

 -----------------------------------------------
 #p ROCCSD(T,MaxCyc=200)/cc-pVTZ SCF(MaxCyc=200)
 -----------------------------------------------

 ---------
 O2_O2_278
 ---------
 Symbolic Z-matrix:
 Charge = -1 Multiplicity = 2

                         Standard orientation:
 ---------------------------------------------------------------------
 Center     Atomic      Atomic             Coordinates (Angstroms)
 Number     Number       Type             X           Y           Z
 ---------------------------------------------------------------------
      1          8           0       -0.870000   -2.630000    0.000000
      2          8           0        0.290000   -2.630000    0.000000
      3          8           0        0.290000    2.050000    0.000000
      4          8           0        0.290000    3.210000    0.000000
 ---------------------------------------------------------------------

 SCF Done:  E(ROHF) =  -299.164758189     A.U. after   16 cycles
 E2 =    -0.9593300357D+00 EUMP2 =    -0.30012408822464D+03
 CCSD(T)
 CCSD(T)= -0.30014827263D+03

 The electronic state is 2-A'.
 Alpha  occ. eigenvalues --  -20.44405 -20.43979 -20.43785 -20.43674  -1.44096
 Alpha  occ. eigenvalues --   -1.43643  -0.84891  -0.84560  -0.52476  -0.52035
 Alpha  occ. eigenvalues --   -0.49673  -0.49348  -0.48336  -0.47985  -0.18605
 Alpha  occ. eigenvalues --   -0.18198  -0.00186
 Alpha virt. eigenvalues --    0.09999   0.63793   0.64021   0.91497   0.91707
 Alpha virt. eigenvalues --    0.92286   0.92668   0.93702   0.94017   1.03608
 Alpha virt. eigenvalues --    1.03846   1.03905   1.04320   1.04935   1.05216

 Mulliken charges and spin densities:
               1          2
     1  O   -0.255991   0.251396
     2  O   -0.249128   0.253742
     3  O   -0.223709   0.254731
     4  O   -0.271171   0.240131
 Sum of Mulliken charges =  -1.00000   1.00000

 Dipole moment (field-independent basis, Debye):
    X=              0.0306    Y=              0.0149    Z=              0.0000  Tot=              0.0340
 Quadrupole moment (field-independent basis, Debye-Ang):
   XX=            -23.5157   YY=            -57.5188   ZZ=            -23.1859
   XY=             -3.8045   XZ=              0.0000   YZ=              0.0000

 85\CCSD(T)=-300.1482726\RMSD=5.313e-09\PG=CS [SG(O4)]\\@
 Normal termination of Gaussian 16 at Sun Feb 18 05:16:30 2024.
