 Gaussian 16, Revision A.03,
 Gaussian 16:  ES64L-G16RevA.03 25-Dec-2016

 -----------------------------------------------
 #p ROCCSD(T,MaxCyc=200)/cc-pVTZ SCF(MaxCyc=200)
 -----------------------------------------------

 ---------
 O2_O2_273
 ---------
 Symbolic Z-matrix:
 Charge = -1 Multiplicity = 2

                         Standard orientation:
 ---------------------------------------------------------------------
 Center     Atomic      Atomic             Coordinates (Angstroms)
 Number     Number       Type             X           Y           Z
 ---------------------------------------------------------------------
      1          8           0        0.000000    0.000000    3.480000
      2          8           0        0.000000    0.000000    2.320000
      3          8           0        0.000000    0.000000   -2.320000
      4          8           0        0.000000    0.000000   -3.480000
 ---------------------------------------------------------------------

 SCF Done:  E(ROHF) =  -299.163791788     A.U. after   13 cycles
 E2 =    -0.9597677362D+00 EUMP2 =    -0.30012355952381D+03
 CCSD(T)
 CCSD(T)= -0.30014691381D+03

 Unable to determine electronic state:  an orbital has unidentified symmetry.
 Alpha  occ. eigenvalues --  -20.44419 -20.44419 -20.44046 -20.44046  -1.44171
 Alpha  occ. eigenvalues --   -1.44167  -0.85012  -0.84962  -0.52545  -0.52543
 Alpha  occ. eigenvalues --   -0.49769  -0.49727  -0.48583  -0.48380  -0.18678
 Alpha  occ. eigenvalues --   -0.18668  -0.00080
 Alpha virt. eigenvalues --    0.09300   0.62369   0.65227   0.91350   0.91406
 Alpha virt. eigenvalues --    0.92156   0.92206   0.92676   0.94437   1.03397
 Alpha virt. eigenvalues --    1.03595   1.03772   1.03965   1.04139   1.05514

 Mulliken charges and spin densities:
               1          2
     1  O   -0.271832   0.243149
     2  O   -0.228168   0.256851
     3  O   -0.228168   0.256851
     4  O   -0.271832   0.243149
 Sum of Mulliken charges =  -1.00000   1.00000

 Dipole moment (field-independent basis, Debye):
    X=             -0.0000    Y=             -0.0000    Z=              0.0000  Tot=              0.0000
 Quadrupole moment (field-independent basis, Debye-Ang):
   XX=            -23.1847   YY=            -20.6700   ZZ=            -67.7482
   XY=              0.0000   XZ=              0.0000   YZ=              0.0000

 918\PMP2-0=-300.1235595\MP4SDQ=-300.1088118\CCSD=-300.1058374\CCSD(T)=
 Normal termination of Gaussian 16 at Sun Feb 18 05:00:00 2024.
