 Gaussian 16, Revision A.03,
 Gaussian 16:  ES64L-G16RevA.03 25-Dec-2016

 -----------------------------------------------
 #p ROCCSD(T,MaxCyc=200)/cc-pVTZ SCF(MaxCyc=200)
 -----------------------------------------------

 --------
 O2_O2_27
 --------
 Symbolic Z-matrix:
 Charge = -1 Multiplicity = 2

                         Standard orientation:
 ---------------------------------------------------------------------
 Center     Atomic      Atomic             Coordinates (Angstroms)
 Number     Number       Type             X           Y           Z
 ---------------------------------------------------------------------
      1          8           0        0.000000    0.000000    1.840000
      2          8           0        0.000000    0.000000    0.680000
      3          8           0        0.000000    0.000000   -0.680000
      4          8           0        0.000000    0.000000   -1.840000
 ---------------------------------------------------------------------

 SCF Done:  E(ROHF) =  -298.889115317     A.U. after   12 cycles
 E2 =    -0.1122190165D+01 EUMP2 =    -0.30001130548249D+03
 CCSD(T)
 CCSD(T)= -0.29998765905D+03

 Unable to determine electronic state:  an orbital has unidentified symmetry.
 Alpha  occ. eigenvalues --  -20.45938 -20.45922 -20.33652 -20.33652  -1.45568
 Alpha  occ. eigenvalues --   -1.38743  -1.03544  -0.70570  -0.57309  -0.54662
 Alpha  occ. eigenvalues --   -0.49761  -0.47540  -0.38502  -0.20592  -0.19395
 Alpha  occ. eigenvalues --   -0.10663  -0.07266
 Alpha virt. eigenvalues --    0.30322   0.71465   0.73364   0.91823   0.93593
 Alpha virt. eigenvalues --    0.93957   0.98914   0.99335   1.00410   1.08186
 Alpha virt. eigenvalues --    1.10476   1.12124   1.24049   1.24588   1.26737

 Mulliken charges and spin densities:
               1          2
     1  O   -0.464406   0.164911
     2  O   -0.035594   0.335089
     3  O   -0.035594   0.335089
     4  O   -0.464406   0.164911
 Sum of Mulliken charges =  -1.00000   1.00000

 Dipole moment (field-independent basis, Debye):
    X=             -0.0000    Y=              0.0000    Z=              0.0000  Tot=              0.0000
 Quadrupole moment (field-independent basis, Debye-Ang):
   XX=            -21.6771   YY=            -22.2473   ZZ=            -41.1569
   XY=              0.0000   XZ=              0.0000   YZ=             -0.0000

 153\PMP2-0=-300.0113055\MP4SDQ=-299.924389\CCSD=-299.9187303\CCSD(T)=-
 Normal termination of Gaussian 16 at Sat Feb 17 20:53:17 2024.
