 Gaussian 16, Revision A.03,
 Gaussian 16:  ES64L-G16RevA.03 25-Dec-2016

 -----------------------------------------------
 #p ROCCSD(T,MaxCyc=200)/cc-pVTZ SCF(MaxCyc=200)
 -----------------------------------------------

 ---------
 O2_O2_290
 ---------
 Symbolic Z-matrix:
 Charge = -1 Multiplicity = 2

                         Standard orientation:
 ---------------------------------------------------------------------
 Center     Atomic      Atomic             Coordinates (Angstroms)
 Number     Number       Type             X           Y           Z
 ---------------------------------------------------------------------
      1          8           0       -0.870000   -2.710000    0.000000
      2          8           0        0.290000   -2.710000    0.000000
      3          8           0        0.290000    2.130000    0.000000
      4          8           0        0.290000    3.290000    0.000000
 ---------------------------------------------------------------------

 SCF Done:  E(ROHF) =  -299.164624092     A.U. after   16 cycles
 E2 =    -0.9594764615D+00 EUMP2 =    -0.30012410055310D+03
 CCSD(T)
 CCSD(T)= -0.30014816961D+03

 The electronic state is 2-A'.
 Alpha  occ. eigenvalues --  -20.44515 -20.44114 -20.43936 -20.43826  -1.44219
 Alpha  occ. eigenvalues --   -1.43795  -0.85019  -0.84709  -0.52599  -0.52186
 Alpha  occ. eigenvalues --   -0.49801  -0.49496  -0.48465  -0.48137  -0.18729
 Alpha  occ. eigenvalues --   -0.18348  -0.00170
 Alpha virt. eigenvalues --    0.09698   0.63692   0.63859   0.91380   0.91720
 Alpha virt. eigenvalues --    0.92166   0.92521   0.93561   0.93701   1.03481
 Alpha virt. eigenvalues --    1.03701   1.03836   1.04166   1.04758   1.05018

 Mulliken charges and spin densities:
               1          2
     1  O   -0.255494   0.251346
     2  O   -0.249271   0.253427
     3  O   -0.225129   0.254561
     4  O   -0.270106   0.240666
 Sum of Mulliken charges =  -1.00000   1.00000

 Dipole moment (field-independent basis, Debye):
    X=              0.0282    Y=              0.0156    Z=              0.0000  Tot=              0.0322
 Quadrupole moment (field-independent basis, Debye-Ang):
   XX=            -23.5115   YY=            -59.5430   ZZ=            -23.1853
   XY=             -3.9082   XZ=              0.0000   YZ=              0.0000

 2\CCSD(T)=-300.1481696\RMSD=4.483e-09\PG=CS [SG(O4)]\\@
 Normal termination of Gaussian 16 at Sun Feb 18 05:50:11 2024.
