 Gaussian 16, Revision A.03,
 Gaussian 16:  ES64L-G16RevA.03 25-Dec-2016

 -----------------------------------------------
 #p ROCCSD(T,MaxCyc=200)/cc-pVTZ SCF(MaxCyc=200)
 -----------------------------------------------

 ---------
 O2_O2_194
 ---------
 Symbolic Z-matrix:
 Charge = -1 Multiplicity = 2

                         Standard orientation:
 ---------------------------------------------------------------------
 Center     Atomic      Atomic             Coordinates (Angstroms)
 Number     Number       Type             X           Y           Z
 ---------------------------------------------------------------------
      1          8           0       -0.870000   -2.070000    0.000000
      2          8           0        0.290000   -2.070000    0.000000
      3          8           0        0.290000    1.490000    0.000000
      4          8           0        0.290000    2.650000    0.000000
 ---------------------------------------------------------------------

 SCF Done:  E(ROHF) =  -299.167784817     A.U. after   15 cycles
 E2 =    -0.9580621068D+00 EUMP2 =    -0.30012584692382D+03
 CCSD(T)
 CCSD(T)= -0.30015134172D+03

 The electronic state is 2-A'.
 Alpha  occ. eigenvalues --  -20.43536 -20.42793 -20.42531 -20.42406  -1.43039
 Alpha  occ. eigenvalues --   -1.42336  -0.83764  -0.83285  -0.51425  -0.50748
 Alpha  occ. eigenvalues --   -0.48619  -0.48092  -0.47189  -0.46567  -0.17535
 Alpha  occ. eigenvalues --   -0.16925  -0.00505
 Alpha virt. eigenvalues --    0.12902   0.63579   0.65456   0.87862   0.92345
 Alpha virt. eigenvalues --    0.92829   0.94282   0.94922   0.99577   1.03186
 Alpha virt. eigenvalues --    1.04422   1.05583   1.06128   1.06357   1.09608

 Mulliken charges and spin densities:
               1          2
     1  O   -0.262061   0.250571
     2  O   -0.245693   0.257868
     3  O   -0.211089   0.256222
     4  O   -0.281157   0.235339
 Sum of Mulliken charges =  -1.00000   1.00000

 Dipole moment (field-independent basis, Debye):
    X=              0.0557    Y=             -0.0149    Z=              0.0000  Tot=              0.0576
 Quadrupole moment (field-independent basis, Debye-Ang):
   XX=            -23.5746   YY=            -45.0462   ZZ=            -23.1925
   XY=             -3.0911   XZ=              0.0000   YZ=              0.0000

 44\CCSD(T)=-300.1513417\RMSD=9.921e-09\PG=CS [SG(O4)]\\@
 Normal termination of Gaussian 16 at Sun Feb 18 02:17:24 2024.
