 Gaussian 16, Revision A.03,
 Gaussian 16:  ES64L-G16RevA.03 25-Dec-2016

 -----------------------------------------------
 #p ROCCSD(T,MaxCyc=200)/cc-pVTZ SCF(MaxCyc=200)
 -----------------------------------------------

 ---------
 O2_O2_130
 ---------
 Symbolic Z-matrix:
 Charge = -1 Multiplicity = 2

                         Standard orientation:
 ---------------------------------------------------------------------
 Center     Atomic      Atomic             Coordinates (Angstroms)
 Number     Number       Type             X           Y           Z
 ---------------------------------------------------------------------
      1          8           0        0.615183   -2.265183   -0.000000
      2          8           0       -0.205061   -1.444939    0.000000
      3          8           0       -0.205061    1.275061    0.000000
      4          8           0       -0.205061    2.435061    0.000000
 ---------------------------------------------------------------------

 SCF Done:  E(ROHF) =  -299.166948153     A.U. after   17 cycles
 E2 =    -0.9576790740D+00 EUMP2 =    -0.30012462722722D+03
 CCSD(T)
 CCSD(T)= -0.30015180822D+03

 The electronic state is 2-A".
 Alpha  occ. eigenvalues --  -20.42433 -20.41943 -20.41617 -20.40904  -1.41922
 Alpha  occ. eigenvalues --   -1.41437  -0.83112  -0.81738  -0.50452  -0.49791
 Alpha  occ. eigenvalues --   -0.48145  -0.46389  -0.45983  -0.45466  -0.16443
 Alpha  occ. eigenvalues --   -0.15787  -0.00652
 Alpha virt. eigenvalues --    0.15306   0.65175   0.70808   0.91076   0.91355
 Alpha virt. eigenvalues --    0.91763   0.95086   0.96483   1.00603   1.02553
 Alpha virt. eigenvalues --    1.05565   1.07872   1.10129   1.12267   1.12851

 Mulliken charges and spin densities:
               1          2
     1  O   -0.287443   0.236149
     2  O   -0.204314   0.256195
     3  O   -0.203312   0.267673
     4  O   -0.304931   0.239983
 Sum of Mulliken charges =  -1.00000   1.00000

 Dipole moment (field-independent basis, Debye):
    X=             -0.1330    Y=             -0.2507    Z=             -0.0000  Tot=              0.2838
 Quadrupole moment (field-independent basis, Debye-Ang):
   XX=            -24.0563   YY=            -43.7977   ZZ=            -20.7406
   XY=              2.8402   XZ=             -0.0000   YZ=              0.0000

 5\CCSD=-300.1104728\CCSD(T)=-300.1518082\RMSD=9.035e-09\PG=CS [SG(O4)]
 Normal termination of Gaussian 16 at Sun Feb 18 00:18:29 2024.
