 Gaussian 16, Revision A.03,
 Gaussian 16:  ES64L-G16RevA.03 25-Dec-2016

 -----------------------------------------------
 #p ROCCSD(T,MaxCyc=200)/cc-pVTZ SCF(MaxCyc=200)
 -----------------------------------------------

 ---------
 O2_O2_191
 ---------
 Symbolic Z-matrix:
 Charge = -1 Multiplicity = 2

                         Standard orientation:
 ---------------------------------------------------------------------
 Center     Atomic      Atomic             Coordinates (Angstroms)
 Number     Number       Type             X           Y           Z
 ---------------------------------------------------------------------
      1          8           0       -0.870000   -2.050000    0.000000
      2          8           0        0.290000   -2.050000    0.000000
      3          8           0        0.290000    1.470000    0.000000
      4          8           0        0.290000    2.630000    0.000000
 ---------------------------------------------------------------------

 SCF Done:  E(ROHF) =  -299.168006323     A.U. after   16 cycles
 E2 =    -0.9580118372D+00 EUMP2 =    -0.30012601816017D+03
 CCSD(T)
 CCSD(T)= -0.30015161303D+03

 The electronic state is 2-A'.
 Alpha  occ. eigenvalues --  -20.43505 -20.42743 -20.42476 -20.42350  -1.42996
 Alpha  occ. eigenvalues --   -1.42277  -0.83717  -0.83228  -0.51383  -0.50690
 Alpha  occ. eigenvalues --   -0.48583  -0.48036  -0.47140  -0.46496  -0.17491
 Alpha  occ. eigenvalues --   -0.16868  -0.00529
 Alpha virt. eigenvalues --    0.13044   0.63569   0.65527   0.87715   0.92352
 Alpha virt. eigenvalues --    0.92811   0.94373   0.94978   0.99725   1.03196
 Alpha virt. eigenvalues --    1.04445   1.05697   1.06153   1.06405   1.09874

 Mulliken charges and spin densities:
               1          2
     1  O   -0.262461   0.250476
     2  O   -0.245465   0.258173
     3  O   -0.210503   0.256259
     4  O   -0.281570   0.235092
 Sum of Mulliken charges =  -1.00000   1.00000

 Dipole moment (field-independent basis, Debye):
    X=              0.0574    Y=             -0.0155    Z=              0.0000  Tot=              0.0595
 Quadrupole moment (field-independent basis, Debye-Ang):
   XX=            -23.5783   YY=            -44.6561   ZZ=            -23.1929
   XY=             -3.0658   XZ=              0.0000   YZ=              0.0000

 579\CCSD(T)=-300.151613\RMSD=9.065e-10\PG=CS [SG(O4)]\\@
 Normal termination of Gaussian 16 at Sun Feb 18 02:14:13 2024.
