 Gaussian 16, Revision A.03,
 Gaussian 16:  ES64L-G16RevA.03 25-Dec-2016

 -----------------------------------------------
 #p ROCCSD(T,MaxCyc=200)/cc-pVTZ SCF(MaxCyc=200)
 -----------------------------------------------

 ---------
 O2_O2_138
 ---------
 Symbolic Z-matrix:
 Charge = -1 Multiplicity = 2

                         Standard orientation:
 ---------------------------------------------------------------------
 Center     Atomic      Atomic             Coordinates (Angstroms)
 Number     Number       Type             X           Y           Z
 ---------------------------------------------------------------------
      1          8           0        0.000000    0.000000    2.580000
      2          8           0        0.000000    0.000000    1.420000
      3          8           0        0.000000    0.000000   -1.420000
      4          8           0        0.000000    0.000000   -2.580000
 ---------------------------------------------------------------------

 SCF Done:  E(ROHF) =  -299.168114734     A.U. after   12 cycles
 E2 =    -0.9578914365D+00 EUMP2 =    -0.30012600617079D+03
 CCSD(T)
 CCSD(T)= -0.30015232770D+03

 Unable to determine electronic state:  an orbital has unidentified symmetry.
 Alpha  occ. eigenvalues --  -20.42689 -20.42688 -20.41737 -20.41737  -1.42194
 Alpha  occ. eigenvalues --   -1.42114  -0.83389  -0.82329  -0.50628  -0.50428
 Alpha  occ. eigenvalues --   -0.48540  -0.46799  -0.46586  -0.45980  -0.16958
 Alpha  occ. eigenvalues --   -0.16259  -0.00649
 Alpha virt. eigenvalues --    0.14402   0.63903   0.71890   0.89802   0.91400
 Alpha virt. eigenvalues --    0.92071   0.94412   0.95150   1.01580   1.02051
 Alpha virt. eigenvalues --    1.03598   1.08121   1.11910   1.11914   1.12107

 Mulliken charges and spin densities:
               1          2
     1  O   -0.296390   0.237552
     2  O   -0.203610   0.262448
     3  O   -0.203610   0.262448
     4  O   -0.296390   0.237552
 Sum of Mulliken charges =  -1.00000   1.00000

 Dipole moment (field-independent basis, Debye):
    X=             -0.0000    Y=              0.0000    Z=             -0.0000  Tot=              0.0000
 Quadrupole moment (field-independent basis, Debye-Ang):
   XX=            -20.7349   YY=            -23.1969   ZZ=            -47.3216
   XY=              0.0000   XZ=              0.0000   YZ=              0.0000

 47\PMP2-0=-300.1260062\MP4SDQ=-300.114342\CCSD=-300.1110917\CCSD(T)=-3
 Normal termination of Gaussian 16 at Sun Feb 18 00:32:30 2024.
