 Gaussian 16, Revision A.03,
 Gaussian 16:  ES64L-G16RevA.03 25-Dec-2016

 -----------------------------------------------
 #p ROCCSD(T,MaxCyc=200)/cc-pVTZ SCF(MaxCyc=200)
 -----------------------------------------------

 ---------
 O2_O2_156
 ---------
 Symbolic Z-matrix:
 Charge = -1 Multiplicity = 2

                         Standard orientation:
 ---------------------------------------------------------------------
 Center     Atomic      Atomic             Coordinates (Angstroms)
 Number     Number       Type             X           Y           Z
 ---------------------------------------------------------------------
      1          8           0        0.000000    0.000000    2.700000
      2          8           0        0.000000    0.000000    1.540000
      3          8           0        0.000000    0.000000   -1.540000
      4          8           0        0.000000    0.000000   -2.700000
 ---------------------------------------------------------------------

 SCF Done:  E(ROHF) =  -299.166808559     A.U. after   12 cycles
 E2 =    -0.9582512818D+00 EUMP2 =    -0.30012505984081D+03
 CCSD(T)
 CCSD(T)= -0.30015075466D+03

 Unable to determine electronic state:  an orbital has unidentified symmetry.
 Alpha  occ. eigenvalues --  -20.42976 -20.42975 -20.42169 -20.42169  -1.42533
 Alpha  occ. eigenvalues --   -1.42488  -0.83550  -0.82918  -0.50941  -0.50828
 Alpha  occ. eigenvalues --   -0.48561  -0.47359  -0.47087  -0.46453  -0.17193
 Alpha  occ. eigenvalues --   -0.16761  -0.00447
 Alpha virt. eigenvalues --    0.13338   0.61435   0.71683   0.88739   0.91695
 Alpha virt. eigenvalues --    0.92432   0.93813   0.94574   1.02021   1.02487
 Alpha virt. eigenvalues --    1.02701   1.06558   1.09571   1.09822   1.11863

 Mulliken charges and spin densities:
               1          2
     1  O   -0.289205   0.238486
     2  O   -0.210795   0.261514
     3  O   -0.210795   0.261514
     4  O   -0.289205   0.238486
 Sum of Mulliken charges =  -1.00000   1.00000

 Dipole moment (field-independent basis, Debye):
    X=             -0.0000    Y=              0.0000    Z=              0.0000  Tot=              0.0000
 Quadrupole moment (field-independent basis, Debye-Ang):
   XX=            -23.1944   YY=            -20.7158   ZZ=            -49.5626
   XY=              0.0000   XZ=              0.0000   YZ=             -0.0000

 Normal termination of Gaussian 16 at Sun Feb 18 01:06:35 2024.
