 Gaussian 16, Revision A.03,
 Gaussian 16:  ES64L-G16RevA.03 25-Dec-2016

 -----------------------------------------------
 #p ROCCSD(T,MaxCyc=200)/cc-pVTZ SCF(MaxCyc=200)
 -----------------------------------------------

 ---------
 O2_O2_139
 ---------
 Symbolic Z-matrix:
 Charge = -1 Multiplicity = 2

                         Standard orientation:
 ---------------------------------------------------------------------
 Center     Atomic      Atomic             Coordinates (Angstroms)
 Number     Number       Type             X           Y           Z
 ---------------------------------------------------------------------
      1          8           0        0.615183   -2.325183   -0.000000
      2          8           0       -0.205061   -1.504939   -0.000000
      3          8           0       -0.205061    1.335061    0.000000
      4          8           0       -0.205061    2.495061    0.000000
 ---------------------------------------------------------------------

 SCF Done:  E(ROHF) =  -299.166703166     A.U. after   16 cycles
 E2 =    -0.9579078390D+00 EUMP2 =    -0.30012461100449D+03
 CCSD(T)
 CCSD(T)= -0.30015146713D+03

 The electronic state is 2-A".
 Alpha  occ. eigenvalues --  -20.42655 -20.42110 -20.41892 -20.41153  -1.42153
 Alpha  occ. eigenvalues --   -1.41640  -0.83201  -0.82080  -0.50621  -0.49996
 Alpha  occ. eigenvalues --   -0.48204  -0.46562  -0.46441  -0.45745  -0.16658
 Alpha  occ. eigenvalues --   -0.16027  -0.00535
 Alpha virt. eigenvalues --    0.14687   0.64288   0.70435   0.90112   0.91510
 Alpha virt. eigenvalues --    0.91913   0.94742   0.96093   1.00233   1.02593
 Alpha virt. eigenvalues --    1.05129   1.07284   1.09577   1.11716   1.11822

 Mulliken charges and spin densities:
               1          2
     1  O   -0.284339   0.236306
     2  O   -0.206975   0.255832
     3  O   -0.207922   0.267343
     4  O   -0.300764   0.240519
 Sum of Mulliken charges =  -1.00000   1.00000

 Dipole moment (field-independent basis, Debye):
    X=             -0.1233    Y=             -0.2597    Z=             -0.0000  Tot=              0.2875
 Quadrupole moment (field-independent basis, Debye-Ang):
   XX=            -24.0450   YY=            -44.7989   ZZ=            -20.7301
   XY=              2.8778   XZ=             -0.0000   YZ=             -0.0000

 724\CCSD=-300.1102364\CCSD(T)=-300.1514671\RMSD=4.724e-09\PG=CS [SG(O4
 Normal termination of Gaussian 16 at Sun Feb 18 00:34:49 2024.
