 Gaussian 16, Revision A.03,
 Gaussian 16:  ES64L-G16RevA.03 25-Dec-2016

 -----------------------------------------------
 #p ROCCSD(T,MaxCyc=200)/cc-pVTZ SCF(MaxCyc=200)
 -----------------------------------------------

 ---------
 O2_O2_154
 ---------
 Symbolic Z-matrix:
 Charge = -1 Multiplicity = 2

                         Standard orientation:
 ---------------------------------------------------------------------
 Center     Atomic      Atomic             Coordinates (Angstroms)
 Number     Number       Type             X           Y           Z
 ---------------------------------------------------------------------
      1          8           0        0.615183   -2.425183    0.000000
      2          8           0       -0.205061   -1.604939    0.000000
      3          8           0       -0.205061    1.435062   -0.000000
      4          8           0       -0.205061    2.595060   -0.000000
 ---------------------------------------------------------------------

 SCF Done:  E(ROHF) =  -299.166095840     A.U. after   17 cycles
 E2 =    -0.9582546426D+00 EUMP2 =    -0.30012435048209D+03
 CCSD(T)
 CCSD(T)= -0.30015067947D+03

 The electronic state is 2-A".
 Alpha  occ. eigenvalues --  -20.42971 -20.42376 -20.42294 -20.41540  -1.42499
 Alpha  occ. eigenvalues --   -1.41960  -0.83407  -0.82556  -0.50910  -0.50321
 Alpha  occ. eigenvalues --   -0.48343  -0.47059  -0.46846  -0.46159  -0.16990
 Alpha  occ. eigenvalues --   -0.16386  -0.00391
 Alpha virt. eigenvalues --    0.13775   0.62832   0.69890   0.88992   0.91760
 Alpha virt. eigenvalues --    0.92328   0.94193   0.95472   0.99723   1.02820
 Alpha virt. eigenvalues --    1.04558   1.06233   1.08573   1.09971   1.11534

 Mulliken charges and spin densities:
               1          2
     1  O   -0.280118   0.236840
     2  O   -0.210909   0.255288
     3  O   -0.213609   0.266513
     4  O   -0.295364   0.241358
 Sum of Mulliken charges =  -1.00000   1.00000

 Dipole moment (field-independent basis, Debye):
    X=             -0.1096    Y=             -0.2665    Z=             -0.0000  Tot=              0.2881
 Quadrupole moment (field-independent basis, Debye-Ang):
   XX=            -24.0303   YY=            -46.5637   ZZ=            -20.7150
   XY=              2.9452   XZ=             -0.0000   YZ=              0.0000

 23447\CCSD=-300.1098037\CCSD(T)=-300.1506795\RMSD=9.676e-09\PG=CS [SG(
 Normal termination of Gaussian 16 at Sun Feb 18 01:02:34 2024.
