 Gaussian 16, Revision A.03,
 Gaussian 16:  ES64L-G16RevA.03 25-Dec-2016

 -----------------------------------------------
 #p ROCCSD(T,MaxCyc=200)/cc-pVTZ SCF(MaxCyc=200)
 -----------------------------------------------

 ---------
 O2_O2_163
 ---------
 Symbolic Z-matrix:
 Charge = -1 Multiplicity = 2

                         Standard orientation:
 ---------------------------------------------------------------------
 Center     Atomic      Atomic             Coordinates (Angstroms)
 Number     Number       Type             X           Y           Z
 ---------------------------------------------------------------------
      1          8           0        0.615183   -2.485183   -0.000000
      2          8           0       -0.205061   -1.664939    0.000000
      3          8           0       -0.205061    1.495061    0.000000
      4          8           0       -0.205061    2.655061    0.000000
 ---------------------------------------------------------------------

 SCF Done:  E(ROHF) =  -299.165719464     A.U. after   24 cycles
 E2 =    -0.9584328457D+00 EUMP2 =    -0.30012415230958D+03
 CCSD(T)
 CCSD(T)= -0.30015015894D+03

 The electronic state is 2-A".
 Alpha  occ. eigenvalues --  -20.43134 -20.42533 -20.42504 -20.41760  -1.42684
 Alpha  occ. eigenvalues --   -1.42145  -0.83546  -0.82801  -0.51075  -0.50508
 Alpha  occ. eigenvalues --   -0.48446  -0.47365  -0.47009  -0.46382  -0.17170
 Alpha  occ. eigenvalues --   -0.16586  -0.00326
 Alpha virt. eigenvalues --    0.13288   0.62080   0.69596   0.88677   0.91876
 Alpha virt. eigenvalues --    0.92544   0.93883   0.95119   0.99436   1.03015
 Alpha virt. eigenvalues --    1.04310   1.05680   1.07945   1.09042   1.11492

 Mulliken charges and spin densities:
               1          2
     1  O   -0.278096   0.237281
     2  O   -0.213054   0.255043
     3  O   -0.216064   0.265898
     4  O   -0.292785   0.241778
 Sum of Mulliken charges =  -1.00000   1.00000

 Dipole moment (field-independent basis, Debye):
    X=             -0.1026    Y=             -0.2650    Z=              0.0000  Tot=              0.2842
 Quadrupole moment (field-independent basis, Debye-Ang):
   XX=            -24.0236   YY=            -47.6783   ZZ=            -20.7074
   XY=              2.9880   XZ=              0.0000   YZ=             -0.0000

 8351\CCSD=-300.1096592\CCSD(T)=-300.1501589\RMSD=3.624e-10\PG=CS [SG(O
 Normal termination of Gaussian 16 at Sun Feb 18 01:19:35 2024.
