 Gaussian 16, Revision A.03,
 Gaussian 16:  ES64L-G16RevA.03 25-Dec-2016

 -----------------------------------------------
 #p ROCCSD(T,MaxCyc=200)/cc-pVTZ SCF(MaxCyc=200)
 -----------------------------------------------

 --------
 O2_O2_58
 --------
 Symbolic Z-matrix:
 Charge = -1 Multiplicity = 2

                         Standard orientation:
 ---------------------------------------------------------------------
 Center     Atomic      Atomic             Coordinates (Angstroms)
 Number     Number       Type             X           Y           Z
 ---------------------------------------------------------------------
      1          8           0        0.615183   -1.785183    0.000000
      2          8           0       -0.205061   -0.964939    0.000000
      3          8           0       -0.205061    0.795061   -0.000000
      4          8           0       -0.205061    1.955061   -0.000000
 ---------------------------------------------------------------------

 SCF Done:  E(ROHF) =  -299.135868377     A.U. after   18 cycles
 E2 =    -0.9604083797D+00 EUMP2 =    -0.30009627675717D+03
 CCSD(T)
 CCSD(T)= -0.30015396425D+03

 The electronic state is 2-A'.
 Alpha  occ. eigenvalues --  -20.48800 -20.45947 -20.32510 -20.29378  -1.46125
 Alpha  occ. eigenvalues --   -1.33996  -0.89125  -0.75174  -0.55224  -0.54141
 Alpha  occ. eigenvalues --   -0.45597  -0.43739  -0.39594  -0.34874  -0.20889
 Alpha  occ. eigenvalues --   -0.10332  -0.05284
 Alpha virt. eigenvalues --    0.27234   0.68287   0.74737   0.90397   0.91405
 Alpha virt. eigenvalues --    0.97460   0.99048   1.00190   1.03091   1.05321
 Alpha virt. eigenvalues --    1.08863   1.09042   1.15328   1.21721   1.22406

 Mulliken charges and spin densities:
               1          2
     1  O   -0.471645   0.450148
     2  O   -0.308800   0.541138
     3  O    0.030736   0.002845
     4  O   -0.250290   0.005868
 Sum of Mulliken charges =  -1.00000   1.00000

 Dipole moment (field-independent basis, Debye):
    X=             -0.8343    Y=              3.3327    Z=             -0.0000  Tot=              3.4355
 Quadrupole moment (field-independent basis, Debye-Ang):
   XX=            -24.0992   YY=            -37.0112   ZZ=            -21.7263
   XY=              3.4949   XZ=             -0.0000   YZ=              0.0000

 8113\CCSD=-300.1025483\CCSD(T)=-300.1539643\RMSD=8.328e-09\PG=CS [SG(O
 Normal termination of Gaussian 16 at Sat Feb 17 21:53:46 2024.
