 Gaussian 16, Revision A.03,
 Gaussian 16:  ES64L-G16RevA.03 25-Dec-2016

 -----------------------------------------------
 #p ROCCSD(T,MaxCyc=200)/cc-pVTZ SCF(MaxCyc=200)
 -----------------------------------------------

 --------
 O2_O2_40
 --------
 Symbolic Z-matrix:
 Charge = -1 Multiplicity = 2

                         Standard orientation:
 ---------------------------------------------------------------------
 Center     Atomic      Atomic             Coordinates (Angstroms)
 Number     Number       Type             X           Y           Z
 ---------------------------------------------------------------------
      1          8           0        0.615183   -1.665183    0.000000
      2          8           0       -0.205061   -0.844939    0.000000
      3          8           0       -0.205061    0.675061   -0.000000
      4          8           0       -0.205061    1.835061   -0.000000
 ---------------------------------------------------------------------

 SCF Done:  E(ROHF) =  -299.083840276     A.U. after   22 cycles
 E2 =    -0.9491906789D+00 EUMP2 =    -0.30003303095495D+03
 CCSD(T)
 CCSD(T)= -0.30007431090D+03

 The electronic state is 2-A".
 Alpha  occ. eigenvalues --  -20.49042 -20.38875 -20.32874 -20.32307  -1.44125
 Alpha  occ. eigenvalues --   -1.35446  -0.94031  -0.72935  -0.54141  -0.52351
 Alpha  occ. eigenvalues --   -0.47811  -0.46245  -0.41091  -0.26753  -0.20087
 Alpha  occ. eigenvalues --   -0.11086  -0.09265
 Alpha virt. eigenvalues --    0.34085   0.70298   0.75471   0.92343   0.93249
 Alpha virt. eigenvalues --    0.95039   0.99258   1.01352   1.03080   1.05146
 Alpha virt. eigenvalues --    1.06991   1.12894   1.14940   1.19831   1.26008

 Mulliken charges and spin densities:
               1          2
     1  O   -0.353192   0.003250
     2  O    0.073953   0.009131
     3  O   -0.298703   0.444616
     4  O   -0.422058   0.543003
 Sum of Mulliken charges =  -1.00000   1.00000

 Dipole moment (field-independent basis, Debye):
    X=             -0.2294    Y=             -1.9089    Z=              0.0000  Tot=              1.9226
 Quadrupole moment (field-independent basis, Debye-Ang):
   XX=            -23.5495   YY=            -36.3823   ZZ=            -22.0227
   XY=              3.4943   XZ=             -0.0000   YZ=              0.0000

 76\CCSD=-300.0288072\CCSD(T)=-300.0743109\RMSD=1.846e-09\PG=CS [SG(O4)
 Normal termination of Gaussian 16 at Sat Feb 17 21:17:52 2024.
