 Gaussian 16, Revision A.03,
 Gaussian 16:  ES64L-G16RevA.03 25-Dec-2016

 -----------------------------------------------
 #p ROCCSD(T,MaxCyc=200)/cc-pVTZ SCF(MaxCyc=200)
 -----------------------------------------------

 --------
 O2_O2_56
 --------
 Symbolic Z-matrix:
 Charge = -1 Multiplicity = 2

                         Standard orientation:
 ---------------------------------------------------------------------
 Center     Atomic      Atomic             Coordinates (Angstroms)
 Number     Number       Type             X           Y           Z
 ---------------------------------------------------------------------
      1          8           0       -0.870000   -1.150000    0.000000
      2          8           0        0.290000   -1.150000    0.000000
      3          8           0        0.290000    0.570000    0.000000
      4          8           0        0.290000    1.730000    0.000000
 ---------------------------------------------------------------------

 SCF Done:  E(ROHF) =  -299.131241700     A.U. after   24 cycles
 E2 =    -0.9600837157D+00 EUMP2 =    -0.30009132541603D+03
 CCSD(T)
 CCSD(T)= -0.30013601521D+03

 The electronic state is 2-A".
 Alpha  occ. eigenvalues --  -20.47226 -20.42526 -20.31527 -20.31122  -1.44066
 Alpha  occ. eigenvalues --   -1.34116  -0.85723  -0.77321  -0.53209  -0.49662
 Alpha  occ. eigenvalues --   -0.48778  -0.45212  -0.41000  -0.28982  -0.18744
 Alpha  occ. eigenvalues --   -0.11994  -0.06919
 Alpha virt. eigenvalues --    0.31367   0.65294   0.75009   0.89091   0.92527
 Alpha virt. eigenvalues --    0.94678   1.00112   1.00757   1.04012   1.04808
 Alpha virt. eigenvalues --    1.10311   1.12175   1.14436   1.18493   1.26135

 Mulliken charges and spin densities:
               1          2
     1  O   -0.204072   0.000605
     2  O   -0.033993   0.002394
     3  O   -0.344977   0.438839
     4  O   -0.416958   0.558161
 Sum of Mulliken charges =  -1.00000   1.00000

 Dipole moment (field-independent basis, Debye):
    X=             -0.1098    Y=             -2.6719    Z=              0.0000  Tot=              2.6742
 Quadrupole moment (field-independent basis, Debye-Ang):
   XX=            -24.3046   YY=            -32.0176   ZZ=            -22.1565
   XY=             -2.3582   XZ=              0.0000   YZ=              0.0000

 54\CCSD(T)=-300.1360152\RMSD=6.554e-09\PG=CS [SG(O4)]\\@
 Normal termination of Gaussian 16 at Sat Feb 17 21:49:59 2024.
