 Gaussian 16, Revision A.03,
 Gaussian 16:  ES64L-G16RevA.03 25-Dec-2016

 -----------------------------------------------
 #p ROCCSD(T,MaxCyc=200)/cc-pVTZ SCF(MaxCyc=200)
 -----------------------------------------------

 --------
 O2_O2_21
 --------
 Symbolic Z-matrix:
 Charge = -1 Multiplicity = 2

                         Standard orientation:
 ---------------------------------------------------------------------
 Center     Atomic      Atomic             Coordinates (Angstroms)
 Number     Number       Type             X           Y           Z
 ---------------------------------------------------------------------
      1          8           0        0.000000    0.000000    1.800000
      2          8           0        0.000000    0.000000    0.640000
      3          8           0        0.000000    0.000000   -0.640000
      4          8           0        0.000000    0.000000   -1.800000
 ---------------------------------------------------------------------

 SCF Done:  E(ROHF) =  -298.806696655     A.U. after   13 cycles
 E2 =    -0.1120562055D+01 EUMP2 =    -0.29992725871072D+03
 CCSD(T)
 CCSD(T)= -0.29990523576D+03

 Unable to determine electronic state:  an orbital has unidentified symmetry.
 Alpha  occ. eigenvalues --  -20.46638 -20.46611 -20.32249 -20.32248  -1.47892
 Alpha  occ. eigenvalues --   -1.38170  -1.07989  -0.69067  -0.59529  -0.54788
 Alpha  occ. eigenvalues --   -0.51797  -0.46802  -0.37663  -0.20847  -0.13355
 Alpha  occ. eigenvalues --   -0.09573  -0.08253
 Alpha virt. eigenvalues --    0.32014   0.71186   0.73930   0.91305   0.91518
 Alpha virt. eigenvalues --    0.93210   0.96933   0.99868   1.00926   1.08972
 Alpha virt. eigenvalues --    1.11027   1.12178   1.24289   1.27059   1.29180

 Mulliken charges and spin densities:
               1          2
     1  O   -0.469391   0.161152
     2  O   -0.030609   0.338848
     3  O   -0.030609   0.338848
     4  O   -0.469391   0.161152
 Sum of Mulliken charges =  -1.00000   1.00000

 Dipole moment (field-independent basis, Debye):
    X=             -0.0000    Y=             -0.0000    Z=             -0.0000  Tot=              0.0000
 Quadrupole moment (field-independent basis, Debye-Ang):
   XX=            -21.5767   YY=            -22.1562   ZZ=            -41.7285
   XY=              0.0000   XZ=              0.0000   YZ=             -0.0000

 67\PMP2-0=-299.9272587\MP4SDQ=-299.8481538\CCSD=-299.837496\CCSD(T)=-2
 Normal termination of Gaussian 16 at Sat Feb 17 20:43:10 2024.
