 Gaussian 16, Revision A.03,
 Gaussian 16:  ES64L-G16RevA.03 25-Dec-2016

 -----------------------------------------------
 #p ROCCSD(T,MaxCyc=200)/cc-pVTZ SCF(MaxCyc=200)
 -----------------------------------------------

 ---------
 O2_O2_160
 ---------
 Symbolic Z-matrix:
 Charge = -1 Multiplicity = 2

                         Standard orientation:
 ---------------------------------------------------------------------
 Center     Atomic      Atomic             Coordinates (Angstroms)
 Number     Number       Type             X           Y           Z
 ---------------------------------------------------------------------
      1          8           0        0.615183   -2.465183   -0.000000
      2          8           0       -0.205061   -1.644939    0.000000
      3          8           0       -0.205061    1.475061    0.000000
      4          8           0       -0.205061    2.635061    0.000000
 ---------------------------------------------------------------------

 SCF Done:  E(ROHF) =  -299.165842970     A.U. after   20 cycles
 E2 =    -0.9583762615D+00 EUMP2 =    -0.30012421923159D+03
 CCSD(T)
 CCSD(T)= -0.30015033441D+03

 The electronic state is 2-A".
 Alpha  occ. eigenvalues --  -20.43082 -20.42481 -20.42436 -20.41687  -1.42624
 Alpha  occ. eigenvalues --   -1.42084  -0.83499  -0.82722  -0.51021  -0.50446
 Alpha  occ. eigenvalues --   -0.48410  -0.47267  -0.46956  -0.46309  -0.17111
 Alpha  occ. eigenvalues --   -0.16520  -0.00346
 Alpha virt. eigenvalues --    0.13446   0.62315   0.69692   0.88754   0.91841
 Alpha virt. eigenvalues --    0.92476   0.93985   0.95235   0.99532   1.02947
 Alpha virt. eigenvalues --    1.04386   1.05856   1.08151   1.09341   1.11503

 Mulliken charges and spin densities:
               1          2
     1  O   -0.278731   0.237127
     2  O   -0.212355   0.255117
     3  O   -0.215313   0.266110
     4  O   -0.293601   0.241646
 Sum of Mulliken charges =  -1.00000   1.00000

 Dipole moment (field-independent basis, Debye):
    X=             -0.1048    Y=             -0.2660    Z=              0.0000  Tot=              0.2859
 Quadrupole moment (field-independent basis, Debye-Ang):
   XX=            -24.0257   YY=            -47.3022   ZZ=            -20.7098
   XY=              2.9735   XZ=             -0.0000   YZ=             -0.0000

 033\CCSD=-300.1096928\CCSD(T)=-300.1503344\RMSD=8.500e-10\PG=CS [SG(O4
 Normal termination of Gaussian 16 at Sun Feb 18 01:14:10 2024.
