 Gaussian 16, Revision A.03,
 Gaussian 16:  ES64L-G16RevA.03 25-Dec-2016

 -----------------------------------------------
 #p ROCCSD(T,MaxCyc=200)/cc-pVTZ SCF(MaxCyc=200)
 -----------------------------------------------

 ---------
 O2_O2_252
 ---------
 Symbolic Z-matrix:
 Charge = -1 Multiplicity = 2

                         Standard orientation:
 ---------------------------------------------------------------------
 Center     Atomic      Atomic             Coordinates (Angstroms)
 Number     Number       Type             X           Y           Z
 ---------------------------------------------------------------------
      1          8           0        0.000000    0.000000    3.340000
      2          8           0        0.000000    0.000000    2.180000
      3          8           0        0.000000    0.000000   -2.180000
      4          8           0        0.000000    0.000000   -3.340000
 ---------------------------------------------------------------------

 SCF Done:  E(ROHF) =  -299.163896284     A.U. after   13 cycles
 E2 =    -0.9595462037D+00 EUMP2 =    -0.30012344248808D+03
 CCSD(T)
 CCSD(T)= -0.30014706805D+03

 Unable to determine electronic state:  an orbital has unidentified symmetry.
 Alpha  occ. eigenvalues --  -20.44200 -20.44199 -20.43787 -20.43786  -1.43934
 Alpha  occ. eigenvalues --   -1.43930  -0.84776  -0.84707  -0.52309  -0.52305
 Alpha  occ. eigenvalues --   -0.49539  -0.49458  -0.48363  -0.48124  -0.18443
 Alpha  occ. eigenvalues --   -0.18421  -0.00095
 Alpha virt. eigenvalues --    0.09807   0.61506   0.66458   0.91546   0.91668
 Alpha virt. eigenvalues --    0.92082   0.92353   0.92467   0.95531   1.03513
 Alpha virt. eigenvalues --    1.03893   1.03969   1.04021   1.04335   1.06534

 Mulliken charges and spin densities:
               1          2
     1  O   -0.274004   0.242492
     2  O   -0.225996   0.257508
     3  O   -0.225996   0.257508
     4  O   -0.274004   0.242492
 Sum of Mulliken charges =  -1.00000   1.00000

 Dipole moment (field-independent basis, Debye):
    X=             -0.0000    Y=             -0.0000    Z=             -0.0000  Tot=              0.0000
 Quadrupole moment (field-independent basis, Debye-Ang):
   XX=            -20.6723   YY=            -23.1857   ZZ=            -64.0345
   XY=              0.0000   XZ=              0.0000   YZ=              0.0000

 Normal termination of Gaussian 16 at Sun Feb 18 04:13:02 2024.
