 Gaussian 16, Revision A.03,
 Gaussian 16:  ES64L-G16RevA.03 25-Dec-2016

 -----------------------------------------------
 #p ROCCSD(T,MaxCyc=200)/cc-pVTZ SCF(MaxCyc=200)
 -----------------------------------------------

 ---------
 O2_O2_173
 ---------
 Symbolic Z-matrix:
 Charge = -1 Multiplicity = 2

                         Standard orientation:
 ---------------------------------------------------------------------
 Center     Atomic      Atomic             Coordinates (Angstroms)
 Number     Number       Type             X           Y           Z
 ---------------------------------------------------------------------
      1          8           0       -0.870000   -1.930000    0.000000
      2          8           0        0.290000   -1.930000    0.000000
      3          8           0        0.290000    1.350000    0.000000
      4          8           0        0.290000    2.510000    0.000000
 ---------------------------------------------------------------------

 SCF Done:  E(ROHF) =  -299.169565714     A.U. after   15 cycles
 E2 =    -0.9577103944D+00 EUMP2 =    -0.30012727610832D+03
 CCSD(T)
 CCSD(T)= -0.30015349623D+03

 The electronic state is 2-A'.
 Alpha  occ. eigenvalues --  -20.43329 -20.42433 -20.42107 -20.41983  -1.42735
 Alpha  occ. eigenvalues --   -1.41889  -0.83432  -0.82853  -0.51126  -0.50310
 Alpha  occ. eigenvalues --   -0.48397  -0.47668  -0.46830  -0.46003  -0.17227
 Alpha  occ. eigenvalues --   -0.16493  -0.00703
 Alpha virt. eigenvalues --    0.13972   0.63744   0.66044   0.87172   0.92319
 Alpha virt. eigenvalues --    0.92599   0.94970   0.95341   1.00178   1.03598
 Alpha virt. eigenvalues --    1.04607   1.05929   1.06520   1.06696   1.11830

 Mulliken charges and spin densities:
               1          2
     1  O   -0.265390   0.249783
     2  O   -0.244079   0.260553
     3  O   -0.206357   0.256311
     4  O   -0.284174   0.233353
 Sum of Mulliken charges =  -1.00000   1.00000

 Dipole moment (field-independent basis, Debye):
    X=              0.0709    Y=             -0.0126    Z=              0.0000  Tot=              0.0720
 Quadrupole moment (field-independent basis, Debye-Ang):
   XX=            -23.6039   YY=            -42.4022   ZZ=            -23.1950
   XY=             -2.9140   XZ=              0.0000   YZ=              0.0000

 956\CCSD(T)=-300.1534962\RMSD=4.390e-09\PG=CS [SG(O4)]\\@
 Normal termination of Gaussian 16 at Sun Feb 18 01:37:47 2024.
