 Gaussian 16, Revision A.03,
 Gaussian 16:  ES64L-G16RevA.03 25-Dec-2016

 -----------------------------------------------
 #p ROCCSD(T,MaxCyc=200)/cc-pVTZ SCF(MaxCyc=200)
 -----------------------------------------------

 ---------
 O2_O2_296
 ---------
 Symbolic Z-matrix:
 Charge = -1 Multiplicity = 2

                         Standard orientation:
 ---------------------------------------------------------------------
 Center     Atomic      Atomic             Coordinates (Angstroms)
 Number     Number       Type             X           Y           Z
 ---------------------------------------------------------------------
      1          8           0       -0.870000   -2.750000    0.000000
      2          8           0        0.290000   -2.750000    0.000000
      3          8           0        0.290000    2.170000    0.000000
      4          8           0        0.290000    3.330000    0.000000
 ---------------------------------------------------------------------

 SCF Done:  E(ROHF) =  -299.164569209     A.U. after   20 cycles
 E2 =    -0.9595463607D+00 EUMP2 =    -0.30012411556958D+03
 CCSD(T)
 CCSD(T)= -0.30014811989D+03

 The electronic state is 2-A'.
 Alpha  occ. eigenvalues --  -20.44568 -20.44178 -20.44008 -20.43900  -1.44279
 Alpha  occ. eigenvalues --   -1.43868  -0.85081  -0.84780  -0.52658  -0.52258
 Alpha  occ. eigenvalues --   -0.49863  -0.49567  -0.48527  -0.48210  -0.18789
 Alpha  occ. eigenvalues --   -0.18420  -0.00164
 Alpha virt. eigenvalues --    0.09555   0.63637   0.63782   0.91322   0.91696
 Alpha virt. eigenvalues --    0.92108   0.92450   0.93494   0.93581   1.03419
 Alpha virt. eigenvalues --    1.03632   1.03791   1.04095   1.04678   1.04934

 Mulliken charges and spin densities:
               1          2
     1  O   -0.255264   0.251317
     2  O   -0.249331   0.253282
     3  O   -0.225802   0.254479
     4  O   -0.269604   0.240922
 Sum of Mulliken charges =  -1.00000   1.00000

 Dipole moment (field-independent basis, Debye):
    X=              0.0271    Y=              0.0157    Z=              0.0000  Tot=              0.0313
 Quadrupole moment (field-independent basis, Debye-Ang):
   XX=            -23.5096   YY=            -60.5782   ZZ=            -23.1851
   XY=             -3.9603   XZ=              0.0000   YZ=              0.0000

 31\CCSD(T)=-300.1481199\RMSD=4.265e-09\PG=CS [SG(O4)]\\@
 Normal termination of Gaussian 16 at Sun Feb 18 06:05:10 2024.
