 Gaussian 16, Revision A.03,
 Gaussian 16:  ES64L-G16RevA.03 25-Dec-2016

 -----------------------------------------------
 #p ROCCSD(T,MaxCyc=200)/cc-pVTZ SCF(MaxCyc=200)
 -----------------------------------------------

 ---------
 O2_O2_239
 ---------
 Symbolic Z-matrix:
 Charge = -1 Multiplicity = 2

                         Standard orientation:
 ---------------------------------------------------------------------
 Center     Atomic      Atomic             Coordinates (Angstroms)
 Number     Number       Type             X           Y           Z
 ---------------------------------------------------------------------
      1          8           0       -0.870000   -2.370000    0.000000
      2          8           0        0.290000   -2.370000    0.000000
      3          8           0        0.290000    1.790000    0.000000
      4          8           0        0.290000    2.950000    0.000000
 ---------------------------------------------------------------------

 SCF Done:  E(ROHF) =  -299.165559634     A.U. after   15 cycles
 E2 =    -0.9587877665D+00 EUMP2 =    -0.30012434740089D+03
 CCSD(T)
 CCSD(T)= -0.30014881597D+03

 The electronic state is 2-A'.
 Alpha  occ. eigenvalues --  -20.44018 -20.43486 -20.43252 -20.43134  -1.43649
 Alpha  occ. eigenvalues --   -1.43096  -0.84419  -0.84026  -0.52031  -0.51495
 Alpha  occ. eigenvalues --   -0.49208  -0.48820  -0.47862  -0.47423  -0.18152
 Alpha  occ. eigenvalues --   -0.17662  -0.00274
 Alpha virt. eigenvalues --    0.11138   0.63947   0.64611   0.90588   0.91952
 Alpha virt. eigenvalues --    0.92679   0.93236   0.94208   0.96102   1.03762
 Alpha virt. eigenvalues --    1.04032   1.04416   1.05054   1.05517   1.06555

 Mulliken charges and spin densities:
               1          2
     1  O   -0.258018   0.251372
     2  O   -0.248250   0.255057
     3  O   -0.218442   0.255373
     4  O   -0.275290   0.238198
 Sum of Mulliken charges =  -1.00000   1.00000

 Dipole moment (field-independent basis, Debye):
    X=              0.0393    Y=              0.0059    Z=              0.0000  Tot=              0.0398
 Quadrupole moment (field-independent basis, Debye-Ang):
   XX=            -23.5349   YY=            -51.3612   ZZ=            -23.1884
   XY=             -3.4709   XZ=              0.0000   YZ=              0.0000

 483\CCSD(T)=-300.148816\RMSD=2.548e-09\PG=CS [SG(O4)]\\@
 Normal termination of Gaussian 16 at Sun Feb 18 03:47:26 2024.
