 Gaussian 16, Revision A.03,
 Gaussian 16:  ES64L-G16RevA.03 25-Dec-2016

 -----------------------------------------------
 #p ROCCSD(T,MaxCyc=200)/cc-pVTZ SCF(MaxCyc=200)
 -----------------------------------------------

 ---------
 O2_O2_267
 ---------
 Symbolic Z-matrix:
 Charge = -1 Multiplicity = 2

                         Standard orientation:
 ---------------------------------------------------------------------
 Center     Atomic      Atomic             Coordinates (Angstroms)
 Number     Number       Type             X           Y           Z
 ---------------------------------------------------------------------
      1          8           0        0.000000    0.000000    3.440000
      2          8           0        0.000000    0.000000    2.280000
      3          8           0        0.000000    0.000000   -2.280000
      4          8           0        0.000000    0.000000   -3.440000
 ---------------------------------------------------------------------

 SCF Done:  E(ROHF) =  -299.163813852     A.U. after   13 cycles
 E2 =    -0.9597057256D+00 EUMP2 =    -0.30012351957803D+03
 CCSD(T)
 CCSD(T)= -0.30014694774D+03

 Unable to determine electronic state:  an orbital has unidentified symmetry.
 Alpha  occ. eigenvalues --  -20.44358 -20.44358 -20.43975 -20.43975  -1.44105
 Alpha  occ. eigenvalues --   -1.44102  -0.84947  -0.84892  -0.52480  -0.52477
 Alpha  occ. eigenvalues --   -0.49705  -0.49653  -0.48522  -0.48309  -0.18613
 Alpha  occ. eigenvalues --   -0.18600  -0.00083
 Alpha virt. eigenvalues --    0.09439   0.62164   0.65546   0.91407   0.91477
 Alpha virt. eigenvalues --    0.92213   0.92276   0.92548   0.94705   1.03437
 Alpha virt. eigenvalues --    1.03690   1.03813   1.04059   1.04108   1.05756

 Mulliken charges and spin densities:
               1          2
     1  O   -0.272429   0.242968
     2  O   -0.227571   0.257032
     3  O   -0.227571   0.257032
     4  O   -0.272429   0.242968
 Sum of Mulliken charges =  -1.00000   1.00000

 Dipole moment (field-independent basis, Debye):
    X=             -0.0000    Y=             -0.0000    Z=             -0.0000  Tot=              0.0000
 Quadrupole moment (field-independent basis, Debye-Ang):
   XX=            -20.6705   YY=            -23.1850   ZZ=            -66.6673
   XY=              0.0000   XZ=              0.0000   YZ=              0.0000

 Normal termination of Gaussian 16 at Sun Feb 18 04:44:13 2024.
