 Gaussian 16, Revision A.03,
 Gaussian 16:  ES64L-G16RevA.03 25-Dec-2016

 -----------------------------------------------
 #p ROCCSD(T,MaxCyc=200)/cc-pVTZ SCF(MaxCyc=200)
 -----------------------------------------------

 ---------
 O2_O2_222
 ---------
 Symbolic Z-matrix:
 Charge = -1 Multiplicity = 2

                         Standard orientation:
 ---------------------------------------------------------------------
 Center     Atomic      Atomic             Coordinates (Angstroms)
 Number     Number       Type             X           Y           Z
 ---------------------------------------------------------------------
      1          8           0        0.000000    0.000000    3.140000
      2          8           0        0.000000    0.000000    1.980000
      3          8           0        0.000000    0.000000   -1.980000
      4          8           0        0.000000    0.000000   -3.140000
 ---------------------------------------------------------------------

 SCF Done:  E(ROHF) =  -299.164242041     A.U. after   12 cycles
 E2 =    -0.9592111389D+00 EUMP2 =    -0.30012345317992D+03
 CCSD(T)
 CCSD(T)= -0.30014754320D+03

 Unable to determine electronic state:  an orbital has unidentified symmetry.
 Alpha  occ. eigenvalues --  -20.43858 -20.43857 -20.43368 -20.43368  -1.43558
 Alpha  occ. eigenvalues --   -1.43550  -0.84406  -0.84285  -0.51935  -0.51922
 Alpha  occ. eigenvalues --   -0.49194  -0.48998  -0.48014  -0.47706  -0.18078
 Alpha  occ. eigenvalues --   -0.18017  -0.00137
 Alpha virt. eigenvalues --    0.10652   0.59806   0.68583   0.90560   0.91796
 Alpha virt. eigenvalues --    0.92140   0.92600   0.92937   0.97841   1.03485
 Alpha virt. eigenvalues --    1.03879   1.04016   1.04808   1.05163   1.09181

 Mulliken charges and spin densities:
               1          2
     1  O   -0.277411   0.241435
     2  O   -0.222589   0.258565
     3  O   -0.222589   0.258565
     4  O   -0.277411   0.241435
 Sum of Mulliken charges =  -1.00000   1.00000

 Dipole moment (field-independent basis, Debye):
    X=             -0.0000    Y=              0.0000    Z=              0.0000  Tot=              0.0000
 Quadrupole moment (field-independent basis, Debye-Ang):
   XX=            -23.1876   YY=            -20.6784   ZZ=            -59.0674
   XY=              0.0000   XZ=              0.0000   YZ=              0.0000

 42\PMP2-0=-300.1234532\MP4SDQ=-300.1094909\CCSD=-300.1064449\CCSD(T)=-
 Normal termination of Gaussian 16 at Sun Feb 18 03:07:00 2024.
