 Gaussian 16, Revision A.03,
 Gaussian 16:  ES64L-G16RevA.03 25-Dec-2016

 -----------------------------------------------
 #p ROCCSD(T,MaxCyc=200)/cc-pVTZ SCF(MaxCyc=200)
 -----------------------------------------------

 ---------
 O2_O2_124
 ---------
 Symbolic Z-matrix:
 Charge = -1 Multiplicity = 2

                         Standard orientation:
 ---------------------------------------------------------------------
 Center     Atomic      Atomic             Coordinates (Angstroms)
 Number     Number       Type             X           Y           Z
 ---------------------------------------------------------------------
      1          8           0        0.615183   -2.225183    0.000000
      2          8           0       -0.205061   -1.404939    0.000000
      3          8           0       -0.205061    1.235061   -0.000000
      4          8           0       -0.205061    2.395061   -0.000000
 ---------------------------------------------------------------------

 SCF Done:  E(ROHF) =  -299.166984469     A.U. after   19 cycles
 E2 =    -0.9575264158D+00 EUMP2 =    -0.30012451088469D+03
 CCSD(T)
 CCSD(T)= -0.30015191459D+03

 The electronic state is 2-A".
 Alpha  occ. eigenvalues --  -20.42269 -20.41827 -20.41418 -20.40728  -1.41759
 Alpha  occ. eigenvalues --   -1.41296  -0.83077  -0.81480  -0.50347  -0.49651
 Alpha  occ. eigenvalues --   -0.48114  -0.46274  -0.45632  -0.45264  -0.16295
 Alpha  occ. eigenvalues --   -0.15613  -0.00745
 Alpha virt. eigenvalues --    0.15754   0.65736   0.71069   0.91266   0.91316
 Alpha virt. eigenvalues --    0.92233   0.95320   0.96752   1.00894   1.02581
 Alpha virt. eigenvalues --    1.05888   1.08116   1.10619   1.12633   1.13627

 Mulliken charges and spin densities:
               1          2
     1  O   -0.289782   0.236139
     2  O   -0.202382   0.256428
     3  O   -0.199627   0.267789
     4  O   -0.308210   0.239644
 Sum of Mulliken charges =  -1.00000   1.00000

 Dipole moment (field-independent basis, Debye):
    X=             -0.1401    Y=             -0.2430    Z=             -0.0000  Tot=              0.2805
 Quadrupole moment (field-independent basis, Debye-Ang):
   XX=            -24.0650   YY=            -43.1555   ZZ=            -20.7482
   XY=              2.8164   XZ=             -0.0000   YZ=              0.0000

 36875\CCSD=-300.1105348\CCSD(T)=-300.1519146\RMSD=4.079e-09\PG=CS [SG(
 Normal termination of Gaussian 16 at Sun Feb 18 00:08:31 2024.
