 Gaussian 16, Revision A.03,
 Gaussian 16:  ES64L-G16RevA.03 25-Dec-2016

 -----------------------------------------------
 #p ROCCSD(T,MaxCyc=200)/cc-pVTZ SCF(MaxCyc=200)
 -----------------------------------------------

 ---------
 O2_O2_157
 ---------
 Symbolic Z-matrix:
 Charge = -1 Multiplicity = 2

                         Standard orientation:
 ---------------------------------------------------------------------
 Center     Atomic      Atomic             Coordinates (Angstroms)
 Number     Number       Type             X           Y           Z
 ---------------------------------------------------------------------
      1          8           0        0.615183   -2.445183    0.000000
      2          8           0       -0.205061   -1.624939    0.000000
      3          8           0       -0.205061    1.455061   -0.000000
      4          8           0       -0.205061    2.615061   -0.000000
 ---------------------------------------------------------------------

 SCF Done:  E(ROHF) =  -299.165968820     A.U. after   17 cycles
 E2 =    -0.9583169474D+00 EUMP2 =    -0.30012428576740D+03
 CCSD(T)
 CCSD(T)= -0.30015050834D+03

 The electronic state is 2-A".
 Alpha  occ. eigenvalues --  -20.43028 -20.42429 -20.42366 -20.41614  -1.42563
 Alpha  occ. eigenvalues --   -1.42022  -0.83452  -0.82641  -0.50966  -0.50384
 Alpha  occ. eigenvalues --   -0.48376  -0.47166  -0.46901  -0.46235  -0.17051
 Alpha  occ. eigenvalues --   -0.16453  -0.00368
 Alpha virt. eigenvalues --    0.13608   0.62566   0.69790   0.88859   0.91802
 Alpha virt. eigenvalues --    0.92404   0.94088   0.95353   0.99628   1.02882
 Alpha virt. eigenvalues --    1.04468   1.06040   1.08361   1.09651   1.11516

 Mulliken charges and spin densities:
               1          2
     1  O   -0.279405   0.236980
     2  O   -0.211641   0.255200
     3  O   -0.214495   0.266314
     4  O   -0.294459   0.241505
 Sum of Mulliken charges =  -1.00000   1.00000

 Dipole moment (field-independent basis, Debye):
    X=             -0.1071    Y=             -0.2664    Z=             -0.0000  Tot=              0.2871
 Quadrupole moment (field-independent basis, Debye-Ang):
   XX=            -24.0279   YY=            -46.9307   ZZ=            -20.7123
   XY=              2.9592   XZ=             -0.0000   YZ=              0.0000

 21736\CCSD=-300.1097416\CCSD(T)=-300.1505083\RMSD=8.806e-09\PG=CS [SG(
 Normal termination of Gaussian 16 at Sun Feb 18 01:08:52 2024.
