 Gaussian 16, Revision A.03,
 Gaussian 16:  ES64L-G16RevA.03 25-Dec-2016

 -----------------------------------------------
 #p ROCCSD(T,MaxCyc=200)/cc-pVTZ SCF(MaxCyc=200)
 -----------------------------------------------

 --------
 O2_O2_73
 --------
 Symbolic Z-matrix:
 Charge = -1 Multiplicity = 2

                         Standard orientation:
 ---------------------------------------------------------------------
 Center     Atomic      Atomic             Coordinates (Angstroms)
 Number     Number       Type             X           Y           Z
 ---------------------------------------------------------------------
      1          8           0        0.615183   -1.885183    0.000000
      2          8           0       -0.205061   -1.064939   -0.000000
      3          8           0       -0.205061    0.895061   -0.000000
      4          8           0       -0.205061    2.055061   -0.000000
 ---------------------------------------------------------------------

 SCF Done:  E(ROHF) =  -299.168391926     A.U. after   19 cycles
 E2 =    -0.9457002246D+00 EUMP2 =    -0.30011409215089D+03
 CCSD(T)
 CCSD(T)= -0.30017708958D+03

 The electronic state is 2-A'.
 Alpha  occ. eigenvalues --  -20.51397 -20.49359 -20.29911 -20.28460  -1.48483
 Alpha  occ. eigenvalues --   -1.32130  -0.88514  -0.74852  -0.57324  -0.54551
 Alpha  occ. eigenvalues --   -0.47006  -0.42764  -0.38819  -0.36092  -0.23234
 Alpha  occ. eigenvalues --   -0.09551  -0.04301
 Alpha virt. eigenvalues --    0.25288   0.66432   0.74756   0.89079   0.89576
 Alpha virt. eigenvalues --    0.96251   0.96781   0.99468   1.03911   1.04967
 Alpha virt. eigenvalues --    1.07727   1.10447   1.15751   1.20721   1.21259

 Mulliken charges and spin densities:
               1          2
     1  O   -0.464983   0.484786
     2  O   -0.387393   0.513625
     3  O    0.054947  -0.001190
     4  O   -0.202572   0.002779
 Sum of Mulliken charges =  -1.00000   1.00000

 Dipole moment (field-independent basis, Debye):
    X=             -0.8346    Y=              4.4824    Z=              0.0000  Tot=              4.5595
 Quadrupole moment (field-independent basis, Debye-Ang):
   XX=            -24.1081   YY=            -37.6552   ZZ=            -21.7331
   XY=              3.4496   XZ=             -0.0000   YZ=             -0.0000

 1573\CCSD=-300.1334938\CCSD(T)=-300.1770896\RMSD=3.475e-09\PG=CS [SG(O
 Normal termination of Gaussian 16 at Sat Feb 17 22:24:37 2024.
