 Gaussian 16, Revision A.03,
 Gaussian 16:  ES64L-G16RevA.03 25-Dec-2016

 -----------------------------------------------
 #p ROCCSD(T,MaxCyc=200)/cc-pVTZ SCF(MaxCyc=200)
 -----------------------------------------------

 --------
 O2_O2_59
 --------
 Symbolic Z-matrix:
 Charge = -1 Multiplicity = 2

                         Standard orientation:
 ---------------------------------------------------------------------
 Center     Atomic      Atomic             Coordinates (Angstroms)
 Number     Number       Type             X           Y           Z
 ---------------------------------------------------------------------
      1          8           0       -0.870000   -1.170000    0.000000
      2          8           0        0.290000   -1.170000    0.000000
      3          8           0        0.290000    0.590000    0.000000
      4          8           0        0.290000    1.750000    0.000000
 ---------------------------------------------------------------------

 SCF Done:  E(ROHF) =  -299.141562710     A.U. after   24 cycles
 E2 =    -0.9585525317D+00 EUMP2 =    -0.30010011524213D+03
 CCSD(T)
 CCSD(T)= -0.30014581134D+03

 The electronic state is 2-A".
 Alpha  occ. eigenvalues --  -20.47438 -20.43525 -20.31268 -20.30928  -1.44313
 Alpha  occ. eigenvalues --   -1.33921  -0.85477  -0.77356  -0.53444  -0.49947
 Alpha  occ. eigenvalues --   -0.48547  -0.45072  -0.40784  -0.29980  -0.19141
 Alpha  occ. eigenvalues --   -0.11835  -0.06621
 Alpha virt. eigenvalues --    0.30758   0.65012   0.75165   0.89339   0.92183
 Alpha virt. eigenvalues --    0.94445   1.00067   1.00763   1.03686   1.04510
 Alpha virt. eigenvalues --    1.09866   1.11922   1.14387   1.18723   1.25381

 Mulliken charges and spin densities:
               1          2
     1  O   -0.187568   0.000557
     2  O   -0.037328   0.001977
     3  O   -0.355132   0.441832
     4  O   -0.419972   0.555634
 Sum of Mulliken charges =  -1.00000   1.00000

 Dipole moment (field-independent basis, Debye):
    X=             -0.2144    Y=             -2.8643    Z=              0.0000  Tot=              2.8723
 Quadrupole moment (field-independent basis, Debye-Ang):
   XX=            -24.2580   YY=            -32.1597   ZZ=            -22.1721
   XY=             -2.3100   XZ=              0.0000   YZ=              0.0000

 26\CCSD(T)=-300.1458113\RMSD=9.899e-09\PG=CS [SG(O4)]\\@
 Normal termination of Gaussian 16 at Sat Feb 17 21:56:01 2024.
