 Gaussian 16, Revision A.03,
 Gaussian 16:  ES64L-G16RevA.03 25-Dec-2016

 -----------------------------------------------
 #p ROCCSD(T,MaxCyc=200)/cc-pVTZ SCF(MaxCyc=200)
 -----------------------------------------------

 ---------
 O2_O2_159
 ---------
 Symbolic Z-matrix:
 Charge = -1 Multiplicity = 2

                         Standard orientation:
 ---------------------------------------------------------------------
 Center     Atomic      Atomic             Coordinates (Angstroms)
 Number     Number       Type             X           Y           Z
 ---------------------------------------------------------------------
      1          8           0        0.000000    0.000000    2.720000
      2          8           0        0.000000    0.000000    1.560000
      3          8           0        0.000000    0.000000   -1.560000
      4          8           0        0.000000    0.000000   -2.720000
 ---------------------------------------------------------------------

 SCF Done:  E(ROHF) =  -299.166611665     A.U. after   12 cycles
 E2 =    -0.9583072696D+00 EUMP2 =    -0.30012491893429D+03
 CCSD(T)
 CCSD(T)= -0.30015051752D+03

 Unable to determine electronic state:  an orbital has unidentified symmetry.
 Alpha  occ. eigenvalues --  -20.43021 -20.43020 -20.42235 -20.42235  -1.42587
 Alpha  occ. eigenvalues --   -1.42545  -0.83584  -0.83003  -0.50992  -0.50889
 Alpha  occ. eigenvalues --   -0.48575  -0.47467  -0.47134  -0.46524  -0.17234
 Alpha  occ. eigenvalues --   -0.16835  -0.00421
 Alpha virt. eigenvalues --    0.13179   0.61080   0.71630   0.88653   0.91734
 Alpha virt. eigenvalues --    0.92480   0.93718   0.94482   1.02111   1.02542
 Alpha virt. eigenvalues --    1.02574   1.06343   1.09226   1.09486   1.11847

 Mulliken charges and spin densities:
               1          2
     1  O   -0.288251   0.238642
     2  O   -0.211749   0.261358
     3  O   -0.211749   0.261358
     4  O   -0.288251   0.238642
 Sum of Mulliken charges =  -1.00000   1.00000

 Dipole moment (field-independent basis, Debye):
    X=             -0.0000    Y=             -0.0000    Z=              0.0000  Tot=              0.0000
 Quadrupole moment (field-independent basis, Debye-Ang):
   XX=            -20.7130   YY=            -23.1940   ZZ=            -49.9515
   XY=              0.0000   XZ=              0.0000   YZ=              0.0000

 Normal termination of Gaussian 16 at Sun Feb 18 01:11:58 2024.
