 Gaussian 16, Revision A.03,
 Gaussian 16:  ES64L-G16RevA.03 25-Dec-2016

 -----------------------------------------------
 #p ROCCSD(T,MaxCyc=200)/cc-pVTZ SCF(MaxCyc=200)
 -----------------------------------------------

 ---------
 O2_O2_187
 ---------
 Symbolic Z-matrix:
 Charge = -1 Multiplicity = 2

                         Standard orientation:
 ---------------------------------------------------------------------
 Center     Atomic      Atomic             Coordinates (Angstroms)
 Number     Number       Type             X           Y           Z
 ---------------------------------------------------------------------
      1          8           0        0.615183   -2.645183    0.000000
      2          8           0       -0.205061   -1.824939   -0.000000
      3          8           0       -0.205061    1.655062   -0.000000
      4          8           0       -0.205061    2.815060   -0.000000
 ---------------------------------------------------------------------

 SCF Done:  E(ROHF) =  -299.190869802     A.U. after   46 cycles
 E2 =    -0.9203500570D+00 EUMP2 =    -0.30011121985860D+03
 CCSD(T)
 CCSD(T)= -0.30014781110D+03

 The electronic state is 2-A".
 Alpha  occ. eigenvalues --  -20.60837 -20.60388 -20.24837 -20.24759  -1.57668
 Alpha  occ. eigenvalues --   -1.27887  -0.96280  -0.70961  -0.66416  -0.62836
 Alpha  occ. eigenvalues --   -0.55254  -0.39358  -0.35811  -0.33870  -0.32482
 Alpha  occ. eigenvalues --   -0.06033  -0.01989
 Alpha virt. eigenvalues --    0.17161   0.55110   0.71360   0.82436   0.82880
 Alpha virt. eigenvalues --    0.86104   0.92224   0.93909   0.96569   0.99783
 Alpha virt. eigenvalues --    1.02819   1.04967   1.12813   1.13581   1.15758

 Mulliken charges and spin densities:
               1          2
     1  O   -0.048120   0.000064
     2  O    0.046915   0.000100
     3  O   -0.501467   0.498727
     4  O   -0.497328   0.501108
 Sum of Mulliken charges =  -1.00000   1.00000

 Dipole moment (field-independent basis, Debye):
    X=              0.8046    Y=            -10.3777    Z=              0.0000  Tot=             10.4088
 Quadrupole moment (field-independent basis, Debye-Ang):
   XX=            -23.4505   YY=            -51.0133   ZZ=            -20.6023
   XY=              2.5674   XZ=             -0.0000   YZ=              0.0000

 49089\CCSD=-300.1120696\CCSD(T)=-300.1478111\RMSD=2.458e-09\PG=CS [SG(
 Normal termination of Gaussian 16 at Sun Feb 18 02:06:15 2024.
