 Gaussian 16, Revision A.03,
 Gaussian 16:  ES64L-G16RevA.03 25-Dec-2016

 -----------------------------------------------
 #p ROCCSD(T,MaxCyc=200)/cc-pVTZ SCF(MaxCyc=200)
 -----------------------------------------------

 --------
 O2_O2_92
 --------
 Symbolic Z-matrix:
 Charge = -1 Multiplicity = 2

                         Standard orientation:
 ---------------------------------------------------------------------
 Center     Atomic      Atomic             Coordinates (Angstroms)
 Number     Number       Type             X           Y           Z
 ---------------------------------------------------------------------
      1          8           0       -0.870000   -1.390000    0.000000
      2          8           0        0.290000   -1.390000    0.000000
      3          8           0        0.290000    0.810000    0.000000
      4          8           0        0.290000    1.970000    0.000000
 ---------------------------------------------------------------------

 SCF Done:  E(ROHF) =  -299.192713914     A.U. after   28 cycles
 E2 =    -0.9400956170D+00 EUMP2 =    -0.30013280953085D+03
 CCSD(T)
 CCSD(T)= -0.30019058021D+03

 The electronic state is 2-A".
 Alpha  occ. eigenvalues --  -20.51572 -20.50837 -20.28839 -20.28754  -1.48432
 Alpha  occ. eigenvalues --   -1.31591  -0.87754  -0.75045  -0.57505  -0.54296
 Alpha  occ. eigenvalues --   -0.47462  -0.42957  -0.38812  -0.35656  -0.23704
 Alpha  occ. eigenvalues --   -0.09674  -0.04499
 Alpha virt. eigenvalues --    0.25736   0.61882   0.75879   0.88371   0.91197
 Alpha virt. eigenvalues --    0.91847   0.97232   0.99542   1.00401   1.02083
 Alpha virt. eigenvalues --    1.05021   1.07343   1.13939   1.19201   1.21448

 Mulliken charges and spin densities:
               1          2
     1  O   -0.085548   0.000240
     2  O   -0.025760   0.000623
     3  O   -0.436249   0.468213
     4  O   -0.452443   0.530924
 Sum of Mulliken charges =  -1.00000   1.00000

 Dipole moment (field-independent basis, Debye):
    X=             -0.8496    Y=             -4.8819    Z=              0.0000  Tot=              4.9553
 Quadrupole moment (field-independent basis, Debye-Ang):
   XX=            -23.9374   YY=            -34.2887   ZZ=            -22.2438
   XY=             -2.2642   XZ=              0.0000   YZ=              0.0000

 9\CCSD(T)=-300.1905802\RMSD=3.571e-09\PG=CS [SG(O4)]\\@
 Normal termination of Gaussian 16 at Sat Feb 17 23:04:40 2024.
