 Gaussian 16, Revision A.03,
 Gaussian 16:  ES64L-G16RevA.03 25-Dec-2016

 -----------------------------------------------
 #p ROCCSD(T,MaxCyc=200)/cc-pVTZ SCF(MaxCyc=200)
 -----------------------------------------------

 ---------
 O2_O2_180
 ---------
 Symbolic Z-matrix:
 Charge = -1 Multiplicity = 2

                         Standard orientation:
 ---------------------------------------------------------------------
 Center     Atomic      Atomic             Coordinates (Angstroms)
 Number     Number       Type             X           Y           Z
 ---------------------------------------------------------------------
      1          8           0        0.000000    0.000000    2.860000
      2          8           0        0.000000    0.000000    1.700000
      3          8           0        0.000000    0.000000   -1.700000
      4          8           0        0.000000    0.000000   -2.860000
 ---------------------------------------------------------------------

 SCF Done:  E(ROHF) =  -299.165468601     A.U. after   12 cycles
 E2 =    -0.9586623164D+00 EUMP2 =    -0.30012413091737D+03
 CCSD(T)
 CCSD(T)= -0.30014912272D+03

 Unable to determine electronic state:  an orbital has unidentified symmetry.
 Alpha  occ. eigenvalues --  -20.43320 -20.43320 -20.42662 -20.42661  -1.42942
 Alpha  occ. eigenvalues --   -1.42919  -0.83848  -0.83519  -0.51332  -0.51279
 Alpha  occ. eigenvalues --   -0.48734  -0.48108  -0.47451  -0.46979  -0.17521
 Alpha  occ. eigenvalues --   -0.17299  -0.00279
 Alpha virt. eigenvalues --    0.12183   0.59317   0.71034   0.88632   0.91903
 Alpha virt. eigenvalues --    0.92688   0.93096   0.93878   1.01275   1.02744
 Alpha virt. eigenvalues --    1.03184   1.05127   1.07191   1.07498   1.11644

 Mulliken charges and spin densities:
               1          2
     1  O   -0.283192   0.239677
     2  O   -0.216808   0.260323
     3  O   -0.216808   0.260323
     4  O   -0.283192   0.239677
 Sum of Mulliken charges =  -1.00000   1.00000

 Dipole moment (field-independent basis, Debye):
    X=             -0.0000    Y=             -0.0000    Z=              0.0000  Tot=              0.0000
 Quadrupole moment (field-independent basis, Debye-Ang):
   XX=            -20.6969   YY=            -23.1914   ZZ=            -52.7903
   XY=              0.0000   XZ=              0.0000   YZ=              0.0000

 686\PMP2-0=-300.1241309\MP4SDQ=-300.1110985\CCSD=-300.1079652\CCSD(T)=
 Normal termination of Gaussian 16 at Sun Feb 18 01:50:46 2024.
