 Gaussian 16, Revision A.03,
 Gaussian 16:  ES64L-G16RevA.03 25-Dec-2016

 -----------------------------------------------
 #p ROCCSD(T,MaxCyc=200)/cc-pVTZ SCF(MaxCyc=200)
 -----------------------------------------------

 --------
 O2_O2_32
 --------
 Symbolic Z-matrix:
 Charge = -1 Multiplicity = 2

                         Standard orientation:
 ---------------------------------------------------------------------
 Center     Atomic      Atomic             Coordinates (Angstroms)
 Number     Number       Type             X           Y           Z
 ---------------------------------------------------------------------
      1          8           0       -0.870000   -0.990000    0.000000
      2          8           0        0.290000   -0.990000    0.000000
      3          8           0        0.290000    0.410000    0.000000
      4          8           0        0.290000    1.570000    0.000000
 ---------------------------------------------------------------------

 SCF Done:  E(ROHF) =  -298.992904334     A.U. after   21 cycles
 E2 =    -0.9472754362D+00 EUMP2 =    -0.29994017976972D+03
 CCSD(T)
 CCSD(T)= -0.29998605577D+03

 The electronic state is 2-A".
 Alpha  occ. eigenvalues --  -20.48714 -20.35228 -20.34669 -20.28997  -1.46651
 Alpha  occ. eigenvalues --   -1.34987  -0.92674  -0.75126  -0.55840  -0.53256
 Alpha  occ. eigenvalues --   -0.47579  -0.45086  -0.42467  -0.19414  -0.17248
 Alpha  occ. eigenvalues --   -0.11068  -0.10398
 Alpha virt. eigenvalues --    0.38795   0.67479   0.72972   0.87026   0.93372
 Alpha virt. eigenvalues --    0.96293   0.99003   1.00702   1.05756   1.08199
 Alpha virt. eigenvalues --    1.11870   1.14193   1.16684   1.16793   1.28173

 Mulliken charges and spin densities:
               1          2
     1  O   -0.483204   0.001715
     2  O    0.051438   0.016686
     3  O   -0.170314   0.435869
     4  O   -0.397920   0.545730
 Sum of Mulliken charges =  -1.00000   1.00000

 Dipole moment (field-independent basis, Debye):
    X=              1.4937    Y=             -0.7818    Z=              0.0000  Tot=              1.6859
 Quadrupole moment (field-independent basis, Debye-Ang):
   XX=            -25.2250   YY=            -31.1712   ZZ=            -21.9181
   XY=             -3.4699   XZ=              0.0000   YZ=              0.0000

 2\CCSD(T)=-299.9860558\RMSD=4.711e-09\PG=CS [SG(O4)]\\@
 Normal termination of Gaussian 16 at Sat Feb 17 21:02:22 2024.
