 Gaussian 16, Revision A.03,
 Gaussian 16:  ES64L-G16RevA.03 25-Dec-2016

 -----------------------------------------------
 #p ROCCSD(T,MaxCyc=200)/cc-pVTZ SCF(MaxCyc=200)
 -----------------------------------------------

 ---------
 O2_O2_183
 ---------
 Symbolic Z-matrix:
 Charge = -1 Multiplicity = 2

                         Standard orientation:
 ---------------------------------------------------------------------
 Center     Atomic      Atomic             Coordinates (Angstroms)
 Number     Number       Type             X           Y           Z
 ---------------------------------------------------------------------
      1          8           0        0.000000    0.000000    2.880000
      2          8           0        0.000000    0.000000    1.720000
      3          8           0        0.000000    0.000000   -1.720000
      4          8           0        0.000000    0.000000   -2.880000
 ---------------------------------------------------------------------

 SCF Done:  E(ROHF) =  -299.165338656     A.U. after   12 cycles
 E2 =    -0.9587077839D+00 EUMP2 =    -0.30012404643948D+03
 CCSD(T)
 CCSD(T)= -0.30014896086D+03

 Unable to determine electronic state:  an orbital has unidentified symmetry.
 Alpha  occ. eigenvalues --  -20.43361 -20.43361 -20.42718 -20.42718  -1.42990
 Alpha  occ. eigenvalues --   -1.42969  -0.83888  -0.83583  -0.51378  -0.51331
 Alpha  occ. eigenvalues --   -0.48763  -0.48186  -0.47494  -0.47038  -0.17562
 Alpha  occ. eigenvalues --   -0.17359  -0.00264
 Alpha virt. eigenvalues --    0.12056   0.59182   0.70913   0.88700   0.91913
 Alpha virt. eigenvalues --    0.92700   0.93014   0.93798   1.01068   1.02826
 Alpha virt. eigenvalues --    1.03262   1.04992   1.06952   1.07265   1.11597

 Mulliken charges and spin densities:
               1          2
     1  O   -0.282653   0.239816
     2  O   -0.217347   0.260184
     3  O   -0.217347   0.260184
     4  O   -0.282653   0.239816
 Sum of Mulliken charges =  -1.00000   1.00000

 Dipole moment (field-independent basis, Debye):
    X=             -0.0000    Y=              0.0000    Z=              0.0000  Tot=              0.0000
 Quadrupole moment (field-independent basis, Debye-Ang):
   XX=            -23.1911   YY=            -20.6950   ZZ=            -53.2123
   XY=              0.0000   XZ=              0.0000   YZ=             -0.0000

 387\PMP2-0=-300.1240464\MP4SDQ=-300.1109346\CCSD=-300.1078086\CCSD(T)=
 Normal termination of Gaussian 16 at Sun Feb 18 01:56:33 2024.
