 Gaussian 16, Revision A.03,
 Gaussian 16:  ES64L-G16RevA.03 25-Dec-2016

 -----------------------------------------------
 #p ROCCSD(T,MaxCyc=200)/cc-pVTZ SCF(MaxCyc=200)
 -----------------------------------------------

 --------
 O2_O2_91
 --------
 Symbolic Z-matrix:
 Charge = -1 Multiplicity = 2

                         Standard orientation:
 ---------------------------------------------------------------------
 Center     Atomic      Atomic             Coordinates (Angstroms)
 Number     Number       Type             X           Y           Z
 ---------------------------------------------------------------------
      1          8           0        0.615183   -2.005183    0.000000
      2          8           0       -0.205061   -1.184939    0.000000
      3          8           0       -0.205061    1.015061   -0.000000
      4          8           0       -0.205061    2.175061   -0.000000
 ---------------------------------------------------------------------

 SCF Done:  E(ROHF) =  -299.184739577     A.U. after   22 cycles
 E2 =    -0.9343252803D+00 EUMP2 =    -0.30011906485782D+03
 CCSD(T)
 CCSD(T)= -0.30018047998D+03

 The electronic state is 2-A'.
 Alpha  occ. eigenvalues --  -20.54062 -20.52561 -20.27926 -20.27315  -1.50979
 Alpha  occ. eigenvalues --   -1.30556  -0.89837  -0.73649  -0.59764  -0.56051
 Alpha  occ. eigenvalues --   -0.49016  -0.41751  -0.37841  -0.35859  -0.25718
 Alpha  occ. eigenvalues --   -0.08462  -0.03499
 Alpha virt. eigenvalues --    0.23282   0.64449   0.74613   0.87533   0.87635
 Alpha virt. eigenvalues --    0.93759   0.95384   0.98405   1.03493   1.04060
 Alpha virt. eigenvalues --    1.07008   1.10800   1.15864   1.17189   1.20228

 Mulliken charges and spin densities:
               1          2
     1  O   -0.470330   0.499682
     2  O   -0.440752   0.499623
     3  O    0.068901  -0.000618
     4  O   -0.157819   0.001313
 Sum of Mulliken charges =  -1.00000   1.00000

 Dipole moment (field-independent basis, Debye):
    X=             -0.8705    Y=              5.7354    Z=             -0.0000  Tot=              5.8011
 Quadrupole moment (field-independent basis, Debye-Ang):
   XX=            -24.1298   YY=            -38.8808   ZZ=            -21.7124
   XY=              3.4886   XZ=             -0.0000   YZ=              0.0000

 7413\CCSD=-300.1496738\CCSD(T)=-300.18048\RMSD=1.742e-09\PG=CS [SG(O4)
 Normal termination of Gaussian 16 at Sat Feb 17 23:01:49 2024.
