 Gaussian 16, Revision A.03,
 Gaussian 16:  ES64L-G16RevA.03 25-Dec-2016

 -----------------------------------------------
 #p ROCCSD(T,MaxCyc=200)/cc-pVTZ SCF(MaxCyc=200)
 -----------------------------------------------

 ---------
 O2_O2_197
 ---------
 Symbolic Z-matrix:
 Charge = -1 Multiplicity = 2

                         Standard orientation:
 ---------------------------------------------------------------------
 Center     Atomic      Atomic             Coordinates (Angstroms)
 Number     Number       Type             X           Y           Z
 ---------------------------------------------------------------------
      1          8           0       -0.870000   -2.090000    0.000000
      2          8           0        0.290000   -2.090000    0.000000
      3          8           0        0.290000    1.510000    0.000000
      4          8           0        0.290000    2.670000    0.000000
 ---------------------------------------------------------------------

 SCF Done:  E(ROHF) =  -299.167573853     A.U. after   15 cycles
 E2 =    -0.9581122622D+00 EUMP2 =    -0.30012568611523D+03
 CCSD(T)
 CCSD(T)= -0.30015108211D+03

 The electronic state is 2-A'.
 Alpha  occ. eigenvalues --  -20.43568 -20.42843 -20.42586 -20.42460  -1.43082
 Alpha  occ. eigenvalues --   -1.42393  -0.83811  -0.83341  -0.51468  -0.50805
 Alpha  occ. eigenvalues --   -0.48656  -0.48147  -0.47238  -0.46636  -0.17578
 Alpha  occ. eigenvalues --   -0.16981  -0.00483
 Alpha virt. eigenvalues --    0.12764   0.63596   0.65387   0.88020   0.92334
 Alpha virt. eigenvalues --    0.92842   0.94193   0.94868   0.99409   1.03191
 Alpha virt. eigenvalues --    1.04398   1.05475   1.06095   1.06302   1.09356

 Mulliken charges and spin densities:
               1          2
     1  O   -0.261682   0.250659
     2  O   -0.245916   0.257585
     3  O   -0.211656   0.256180
     4  O   -0.280746   0.235576
 Sum of Mulliken charges =  -1.00000   1.00000

 Dipole moment (field-independent basis, Debye):
    X=              0.0540    Y=             -0.0141    Z=              0.0000  Tot=              0.0558
 Quadrupole moment (field-independent basis, Debye-Ang):
   XX=            -23.5711   YY=            -45.4403   ZZ=            -23.1922
   XY=             -3.1163   XZ=              0.0000   YZ=              0.0000

 05\CCSD(T)=-300.1510821\RMSD=8.721e-09\PG=CS [SG(O4)]\\@
 Normal termination of Gaussian 16 at Sun Feb 18 02:20:44 2024.
