 Gaussian 16, Revision A.03,
 Gaussian 16:  ES64L-G16RevA.03 25-Dec-2016

 -----------------------------------------------
 #p ROCCSD(T,MaxCyc=200)/cc-pVTZ SCF(MaxCyc=200)
 -----------------------------------------------

 --------
 O2_O2_30
 --------
 Symbolic Z-matrix:
 Charge = -1 Multiplicity = 2

                         Standard orientation:
 ---------------------------------------------------------------------
 Center     Atomic      Atomic             Coordinates (Angstroms)
 Number     Number       Type             X           Y           Z
 ---------------------------------------------------------------------
      1          8           0        0.000000    0.000000    1.860000
      2          8           0        0.000000    0.000000    0.700000
      3          8           0        0.000000    0.000000   -0.700000
      4          8           0        0.000000    0.000000   -1.860000
 ---------------------------------------------------------------------

 SCF Done:  E(ROHF) =  -298.921497340     A.U. after   12 cycles
 E2 =    -0.1124889531D+01 EUMP2 =    -0.30004638687050D+03
 CCSD(T)
 CCSD(T)= -0.30002108763D+03

 Unable to determine electronic state:  an orbital has unidentified symmetry.
 Alpha  occ. eigenvalues --  -20.45749 -20.45736 -20.34291 -20.34291  -1.44813
 Alpha  occ. eigenvalues --   -1.39029  -1.01514  -0.71309  -0.56484  -0.54569
 Alpha  occ. eigenvalues --   -0.49012  -0.47895  -0.38902  -0.22030  -0.20467
 Alpha  occ. eigenvalues --   -0.11180  -0.06796
 Alpha virt. eigenvalues --    0.29513   0.71520   0.73110   0.91884   0.93685
 Alpha virt. eigenvalues --    0.95080   0.99077   0.99836   1.00161   1.07755
 Alpha virt. eigenvalues --    1.10141   1.12100   1.22722   1.23892   1.26541

 Mulliken charges and spin densities:
               1          2
     1  O   -0.459958   0.167003
     2  O   -0.040042   0.332997
     3  O   -0.040042   0.332997
     4  O   -0.459958   0.167003
 Sum of Mulliken charges =  -1.00000   1.00000

 Dipole moment (field-independent basis, Debye):
    X=             -0.0000    Y=              0.0000    Z=              0.0000  Tot=              0.0000
 Quadrupole moment (field-independent basis, Debye-Ang):
   XX=            -22.2881   YY=            -21.7219   ZZ=            -40.9529
   XY=              0.0000   XZ=              0.0000   YZ=              0.0000

 73\PMP2-0=-300.0463869\MP4SDQ=-299.9543093\CCSD=-299.9512469\CCSD(T)=-
 Normal termination of Gaussian 16 at Sat Feb 17 20:58:09 2024.
