 Gaussian 16, Revision A.03,
 Gaussian 16:  ES64L-G16RevA.03 25-Dec-2016

 -----------------------------------------------
 #p ROCCSD(T,MaxCyc=200)/cc-pVTZ SCF(MaxCyc=200)
 -----------------------------------------------

 ---------
 O2_O2_218
 ---------
 Symbolic Z-matrix:
 Charge = -1 Multiplicity = 2

                         Standard orientation:
 ---------------------------------------------------------------------
 Center     Atomic      Atomic             Coordinates (Angstroms)
 Number     Number       Type             X           Y           Z
 ---------------------------------------------------------------------
      1          8           0       -0.870000   -2.230000    0.000000
      2          8           0        0.290000   -2.230000    0.000000
      3          8           0        0.290000    1.650000    0.000000
      4          8           0        0.290000    2.810000    0.000000
 ---------------------------------------------------------------------

 SCF Done:  E(ROHF) =  -299.166368188     A.U. after   15 cycles
 E2 =    -0.9584579513D+00 EUMP2 =    -0.30012482613904D+03
 CCSD(T)
 CCSD(T)= -0.30014961786D+03

 The electronic state is 2-A'.
 Alpha  occ. eigenvalues --  -20.43793 -20.43178 -20.42936 -20.42814  -1.43375
 Alpha  occ. eigenvalues --   -1.42764  -0.84127  -0.83703  -0.51758  -0.51169
 Alpha  occ. eigenvalues --   -0.48931  -0.48503  -0.47565  -0.47063  -0.17875
 Alpha  occ. eigenvalues --   -0.17340  -0.00357
 Alpha virt. eigenvalues --    0.11886   0.63810   0.64968   0.89331   0.92179
 Alpha virt. eigenvalues --    0.92827   0.93651   0.94518   0.97828   1.03453
 Alpha virt. eigenvalues --    1.04231   1.04856   1.05674   1.05827   1.07829

 Mulliken charges and spin densities:
               1          2
     1  O   -0.259539   0.251132
     2  O   -0.247296   0.256068
     3  O   -0.215235   0.255792
     4  O   -0.277930   0.237008
 Sum of Mulliken charges =  -1.00000   1.00000

 Dipole moment (field-independent basis, Debye):
    X=              0.0453    Y=             -0.0044    Z=              0.0000  Tot=              0.0455
 Quadrupole moment (field-independent basis, Debye-Ang):
   XX=            -23.5502   YY=            -48.3080   ZZ=            -23.1902
   XY=             -3.2932   XZ=              0.0000   YZ=              0.0000

 213\CCSD(T)=-300.1496179\RMSD=5.898e-09\PG=CS [SG(O4)]\\@
 Normal termination of Gaussian 16 at Sun Feb 18 03:00:51 2024.
