 Gaussian 16, Revision A.03,
 Gaussian 16:  ES64L-G16RevA.03 25-Dec-2016

 -----------------------------------------------
 #p ROCCSD(T,MaxCyc=200)/cc-pVTZ SCF(MaxCyc=200)
 -----------------------------------------------

 ---------
 O2_O2_202
 ---------
 Symbolic Z-matrix:
 Charge = -1 Multiplicity = 2

                         Standard orientation:
 ---------------------------------------------------------------------
 Center     Atomic      Atomic             Coordinates (Angstroms)
 Number     Number       Type             X           Y           Z
 ---------------------------------------------------------------------
      1          8           0        0.615183   -2.745183   -0.000000
      2          8           0       -0.205061   -1.924939   -0.000000
      3          8           0       -0.205061    1.755061    0.000000
      4          8           0       -0.205061    2.915061    0.000000
 ---------------------------------------------------------------------

 SCF Done:  E(ROHF) =  -299.190847617     A.U. after   41 cycles
 E2 =    -0.9202618945D+00 EUMP2 =    -0.30011110951114D+03
 CCSD(T)
 CCSD(T)= -0.30014762565D+03

 The electronic state is 2-A".
 Alpha  occ. eigenvalues --  -20.61399 -20.60980 -20.24797 -20.24720  -1.58234
 Alpha  occ. eigenvalues --   -1.27851  -0.96855  -0.70925  -0.66984  -0.63422
 Alpha  occ. eigenvalues --   -0.55811  -0.39324  -0.35776  -0.33833  -0.33064
 Alpha  occ. eigenvalues --   -0.06000  -0.01955
 Alpha virt. eigenvalues --    0.16597   0.54564   0.71664   0.81935   0.82308
 Alpha virt. eigenvalues --    0.85345   0.91718   0.93683   0.96185   0.99429
 Alpha virt. eigenvalues --    1.02749   1.04948   1.10111   1.13472   1.15711

 Mulliken charges and spin densities:
               1          2
     1  O   -0.043782   0.000027
     2  O    0.043250   0.000043
     3  O   -0.501083   0.499253
     4  O   -0.498386   0.500677
 Sum of Mulliken charges =  -1.00000   1.00000

 Dipole moment (field-independent basis, Debye):
    X=              0.8210    Y=            -10.8985    Z=             -0.0000  Tot=             10.9294
 Quadrupole moment (field-independent basis, Debye-Ang):
   XX=            -23.4391   YY=            -53.1440   ZZ=            -20.6006
   XY=              2.6401   XZ=              0.0000   YZ=             -0.0000

 48043\CCSD=-300.1119386\CCSD(T)=-300.1476257\RMSD=8.340e-09\PG=CS [SG(
 Normal termination of Gaussian 16 at Sun Feb 18 02:27:52 2024.
