 Gaussian 16, Revision A.03,
 Gaussian 16:  ES64L-G16RevA.03 25-Dec-2016

 -----------------------------------------------
 #p ROCCSD(T,MaxCyc=200)/cc-pVTZ SCF(MaxCyc=200)
 -----------------------------------------------

 ---------
 O2_O2_255
 ---------
 Symbolic Z-matrix:
 Charge = -1 Multiplicity = 2

                         Standard orientation:
 ---------------------------------------------------------------------
 Center     Atomic      Atomic             Coordinates (Angstroms)
 Number     Number       Type             X           Y           Z
 ---------------------------------------------------------------------
      1          8           0        0.000000    0.000000    3.360000
      2          8           0        0.000000    0.000000    2.200000
      3          8           0        0.000000    0.000000   -2.200000
      4          8           0        0.000000    0.000000   -3.360000
 ---------------------------------------------------------------------

 SCF Done:  E(ROHF) =  -299.163876146     A.U. after   13 cycles
 E2 =    -0.9595785766D+00 EUMP2 =    -0.30012345472213D+03
 CCSD(T)
 CCSD(T)= -0.30014703928D+03

 Unable to determine electronic state:  an orbital has unidentified symmetry.
 Alpha  occ. eigenvalues --  -20.44232 -20.44232 -20.43825 -20.43825  -1.43969
 Alpha  occ. eigenvalues --   -1.43965  -0.84811  -0.84745  -0.52344  -0.52340
 Alpha  occ. eigenvalues --   -0.49573  -0.49498  -0.48395  -0.48162  -0.18478
 Alpha  occ. eigenvalues --   -0.18458  -0.00092
 Alpha virt. eigenvalues --    0.09731   0.61653   0.66263   0.91519   0.91628
 Alpha virt. eigenvalues --    0.92193   0.92325   0.92427   0.95347   1.03501
 Alpha virt. eigenvalues --    1.03880   1.03908   1.04038   1.04275   1.06355

 Mulliken charges and spin densities:
               1          2
     1  O   -0.273680   0.242590
     2  O   -0.226320   0.257410
     3  O   -0.226320   0.257410
     4  O   -0.273680   0.242590
 Sum of Mulliken charges =  -1.00000   1.00000

 Dipole moment (field-independent basis, Debye):
    X=             -0.0000    Y=             -0.0000    Z=             -0.0000  Tot=              0.0000
 Quadrupole moment (field-independent basis, Debye-Ang):
   XX=            -23.1855   YY=            -20.6719   ZZ=            -64.5531
   XY=              0.0000   XZ=              0.0000   YZ=              0.0000

 761\PMP2-0=-300.1234547\MP4SDQ=-300.1089563\CCSD=-300.1059597\CCSD(T)=
 Normal termination of Gaussian 16 at Sun Feb 18 04:17:36 2024.
