 Gaussian 16, Revision A.03,
 Gaussian 16:  ES64L-G16RevA.03 25-Dec-2016

 -----------------------------------------------
 #p ROCCSD(T,MaxCyc=200)/cc-pVTZ SCF(MaxCyc=200)
 -----------------------------------------------

 ---------
 O2_O2_168
 ---------
 Symbolic Z-matrix:
 Charge = -1 Multiplicity = 2

                         Standard orientation:
 ---------------------------------------------------------------------
 Center     Atomic      Atomic             Coordinates (Angstroms)
 Number     Number       Type             X           Y           Z
 ---------------------------------------------------------------------
      1          8           0        0.000000    0.000000    2.780000
      2          8           0        0.000000    0.000000    1.620000
      3          8           0        0.000000    0.000000   -1.620000
      4          8           0        0.000000    0.000000   -2.780000
 ---------------------------------------------------------------------

 SCF Done:  E(ROHF) =  -299.166070646     A.U. after   12 cycles
 E2 =    -0.9584674162D+00 EUMP2 =    -0.30012453806179D+03
 CCSD(T)
 CCSD(T)= -0.30014986238D+03

 Unable to determine electronic state:  an orbital has unidentified symmetry.
 Alpha  occ. eigenvalues --  -20.43152 -20.43152 -20.42425 -20.42425  -1.42743
 Alpha  occ. eigenvalues --   -1.42711  -0.83692  -0.83239  -0.51141  -0.51063
 Alpha  occ. eigenvalues --   -0.48632  -0.47765  -0.47273  -0.46729  -0.17357
 Alpha  occ. eigenvalues --   -0.17046  -0.00352
 Alpha virt. eigenvalues --    0.12728   0.60157   0.71428   0.88528   0.91830
 Alpha virt. eigenvalues --    0.92596   0.93441   0.94214   1.02036   1.02387
 Alpha virt. eigenvalues --    1.02842   1.05761   1.08273   1.08555   1.11781

 Mulliken charges and spin densities:
               1          2
     1  O   -0.285764   0.239098
     2  O   -0.214236   0.260902
     3  O   -0.214236   0.260902
     4  O   -0.285764   0.239098
 Sum of Mulliken charges =  -1.00000   1.00000

 Dipole moment (field-independent basis, Debye):
    X=             -0.0000    Y=             -0.0000    Z=              0.0000  Tot=              0.0000
 Quadrupole moment (field-independent basis, Debye-Ang):
   XX=            -20.7054   YY=            -23.1929   ZZ=            -51.1433
   XY=              0.0000   XZ=              0.0000   YZ=              0.0000

 706\PMP2-0=-300.1245381\MP4SDQ=-300.111847\CCSD=-300.1086831\CCSD(T)=-
 Normal termination of Gaussian 16 at Sun Feb 18 01:27:46 2024.
