 Gaussian 16, Revision A.03,
 Gaussian 16:  ES64L-G16RevA.03 25-Dec-2016

 -----------------------------------------------
 #p ROCCSD(T,MaxCyc=200)/cc-pVTZ SCF(MaxCyc=200)
 -----------------------------------------------

 ---------
 O2_O2_103
 ---------
 Symbolic Z-matrix:
 Charge = -1 Multiplicity = 2

                         Standard orientation:
 ---------------------------------------------------------------------
 Center     Atomic      Atomic             Coordinates (Angstroms)
 Number     Number       Type             X           Y           Z
 ---------------------------------------------------------------------
      1          8           0        0.615183   -2.085183   -0.000000
      2          8           0       -0.205061   -1.264939   -0.000000
      3          8           0       -0.205061    1.095061    0.000000
      4          8           0       -0.205061    2.255061    0.000000
 ---------------------------------------------------------------------

 SCF Done:  E(ROHF) =  -299.189261889     A.U. after   20 cycles
 E2 =    -0.9295136098D+00 EUMP2 =    -0.30011877549889D+03
 CCSD(T)
 CCSD(T)= -0.30017121167D+03

 The electronic state is 2-A'.
 Alpha  occ. eigenvalues --  -20.55503 -20.54230 -20.27036 -20.26691  -1.52356
 Alpha  occ. eigenvalues --   -1.29820  -0.90947  -0.72932  -0.61127  -0.57218
 Alpha  occ. eigenvalues --   -0.50216  -0.41165  -0.37333  -0.35451  -0.27101
 Alpha  occ. eigenvalues --   -0.07849  -0.03133
 Alpha virt. eigenvalues --    0.22152   0.63266   0.74414   0.86582   0.86586
 Alpha virt. eigenvalues --    0.91939   0.95102   0.97857   1.02106   1.03605
 Alpha virt. eigenvalues --    1.06696   1.08801   1.14362   1.16893   1.19389

 Mulliken charges and spin densities:
               1          2
     1  O   -0.475499   0.503368
     2  O   -0.462428   0.495470
     3  O    0.070879   0.000323
     4  O   -0.132951   0.000839
 Sum of Mulliken charges =  -1.00000   1.00000

 Dipole moment (field-independent basis, Debye):
    X=             -0.8951    Y=              6.4726    Z=              0.0000  Tot=              6.5342
 Quadrupole moment (field-independent basis, Debye-Ang):
   XX=            -24.1412   YY=            -39.8898   ZZ=            -21.6939
   XY=              3.5400   XZ=              0.0000   YZ=             -0.0000

 26738\CCSD=-300.1541318\CCSD(T)=-300.1712117\RMSD=4.763e-09\PG=CS [SG(
 Normal termination of Gaussian 16 at Sat Feb 17 23:30:10 2024.
