 Gaussian 16, Revision A.03,
 Gaussian 16:  ES64L-G16RevA.03 25-Dec-2016

 -----------------------------------------------
 #p ROCCSD(T,MaxCyc=200)/cc-pVTZ SCF(MaxCyc=200)
 -----------------------------------------------

 --------
 O2_O2_39
 --------
 Symbolic Z-matrix:
 Charge = -1 Multiplicity = 2

                         Standard orientation:
 ---------------------------------------------------------------------
 Center     Atomic      Atomic             Coordinates (Angstroms)
 Number     Number       Type             X           Y           Z
 ---------------------------------------------------------------------
      1          8           0        0.000000    0.000000    1.920000
      2          8           0        0.000000    0.000000    0.760000
      3          8           0        0.000000    0.000000   -0.760000
      4          8           0        0.000000    0.000000   -1.920000
 ---------------------------------------------------------------------

 SCF Done:  E(ROHF) =  -298.990381920     A.U. after   12 cycles
 E2 =    -0.1138662343D+01 EUMP2 =    -0.30012904426296D+03
 CCSD(T)
 CCSD(T)= -0.30009594375D+03

 Unable to determine electronic state:  an orbital has unidentified symmetry.
 Alpha  occ. eigenvalues --  -20.45552 -20.45545 -20.35971 -20.35971  -1.43492
 Alpha  occ. eigenvalues --   -1.39837  -0.96350  -0.73421  -0.54796  -0.54158
 Alpha  occ. eigenvalues --   -0.48876  -0.47485  -0.40007  -0.28550  -0.20119
 Alpha  occ. eigenvalues --   -0.12597  -0.05506
 Alpha virt. eigenvalues --    0.27256   0.71499   0.72504   0.91826   0.93693
 Alpha virt. eigenvalues --    0.97672   0.98351   0.99464   1.02225   1.06394
 Alpha virt. eigenvalues --    1.08980   1.12102   1.18357   1.23299   1.25843

 Mulliken charges and spin densities:
               1          2
     1  O   -0.442128   0.173768
     2  O   -0.057872   0.326232
     3  O   -0.057872   0.326232
     4  O   -0.442128   0.173768
 Sum of Mulliken charges =  -1.00000   1.00000

 Dipole moment (field-independent basis, Debye):
    X=             -0.0000    Y=             -0.0000    Z=             -0.0000  Tot=              0.0000
 Quadrupole moment (field-independent basis, Debye-Ang):
   XX=            -21.8325   YY=            -22.3902   ZZ=            -40.5919
   XY=              0.0000   XZ=              0.0000   YZ=              0.0000

 819\PMP2-0=-300.1290443\MP4SDQ=-300.0166237\CCSD=-300.0226203\CCSD(T)=
 Normal termination of Gaussian 16 at Sat Feb 17 21:15:34 2024.
