 Gaussian 16, Revision A.03,
 Gaussian 16:  ES64L-G16RevA.03 25-Dec-2016

 -----------------------------------------------
 #p ROCCSD(T,MaxCyc=200)/cc-pVTZ SCF(MaxCyc=200)
 -----------------------------------------------

 ---------
 O2_O2_149
 ---------
 Symbolic Z-matrix:
 Charge = -1 Multiplicity = 2

                         Standard orientation:
 ---------------------------------------------------------------------
 Center     Atomic      Atomic             Coordinates (Angstroms)
 Number     Number       Type             X           Y           Z
 ---------------------------------------------------------------------
      1          8           0       -0.870000   -1.770000    0.000000
      2          8           0        0.290000   -1.770000    0.000000
      3          8           0        0.290000    1.190000    0.000000
      4          8           0        0.290000    2.350000    0.000000
 ---------------------------------------------------------------------

 SCF Done:  E(ROHF) =  -299.172195932     A.U. after   15 cycles
 E2 =    -0.9573432113D+00 EUMP2 =    -0.30012953914362D+03
 CCSD(T)
 CCSD(T)= -0.30015667766D+03

 The electronic state is 2-A'.
 Alpha  occ. eigenvalues --  -20.43126 -20.41998 -20.41495 -20.41379  -1.42387
 Alpha  occ. eigenvalues --   -1.41262  -0.83061  -0.82249  -0.50788  -0.49687
 Alpha  occ. eigenvalues --   -0.48300  -0.47084  -0.46387  -0.45088  -0.16877
 Alpha  occ. eigenvalues --   -0.15880  -0.01049
 Alpha virt. eigenvalues --    0.15463   0.64643   0.67174   0.87730   0.92050
 Alpha virt. eigenvalues --    0.92190   0.95842   0.95894   1.00273   1.03973
 Alpha virt. eigenvalues --    1.04957   1.05344   1.07345   1.08048   1.12925

 Mulliken charges and spin densities:
               1          2
     1  O   -0.271136   0.248388
     2  O   -0.242375   0.265843
     3  O   -0.197796   0.255589
     4  O   -0.288693   0.230180
 Sum of Mulliken charges =  -1.00000   1.00000

 Dipole moment (field-independent basis, Debye):
    X=              0.1001    Y=              0.0142    Z=              0.0000  Tot=              0.1011
 Quadrupole moment (field-independent basis, Debye-Ang):
   XX=            -23.6483   YY=            -39.6374   ZZ=            -23.1986
   XY=             -2.7113   XZ=              0.0000   YZ=              0.0000

 834\CCSD(T)=-300.1566777\RMSD=9.732e-09\PG=CS [SG(O4)]\\@
 Normal termination of Gaussian 16 at Sun Feb 18 00:53:11 2024.
