 Gaussian 16, Revision A.03,
 Gaussian 16:  ES64L-G16RevA.03 25-Dec-2016

 -----------------------------------------------
 #p ROCCSD(T,MaxCyc=200)/cc-pVTZ SCF(MaxCyc=200)
 -----------------------------------------------

 ---------
 O2_O2_230
 ---------
 Symbolic Z-matrix:
 Charge = -1 Multiplicity = 2

                         Standard orientation:
 ---------------------------------------------------------------------
 Center     Atomic      Atomic             Coordinates (Angstroms)
 Number     Number       Type             X           Y           Z
 ---------------------------------------------------------------------
      1          8           0       -0.870000   -2.310000    0.000000
      2          8           0        0.290000   -2.310000    0.000000
      3          8           0        0.290000    1.730000    0.000000
      4          8           0        0.290000    2.890000    0.000000
 ---------------------------------------------------------------------

 SCF Done:  E(ROHF) =  -299.165864494     A.U. after   15 cycles
 E2 =    -0.9586489888D+00 EUMP2 =    -0.30012451348320D+03
 CCSD(T)
 CCSD(T)= -0.30014908535D+03

 The electronic state is 2-A'.
 Alpha  occ. eigenvalues --  -20.43922 -20.43358 -20.43120 -20.43000  -1.43534
 Alpha  occ. eigenvalues --   -1.42957  -0.84297  -0.83891  -0.51917  -0.51359
 Alpha  occ. eigenvalues --   -0.49091  -0.48688  -0.47738  -0.47275  -0.18036
 Alpha  occ. eigenvalues --   -0.17528  -0.00305
 Alpha virt. eigenvalues --    0.11445   0.63910   0.64759   0.90088   0.92053
 Alpha virt. eigenvalues --    0.92754   0.93400   0.94337   0.96816   1.03643
 Alpha virt. eigenvalues --    1.04122   1.04588   1.05303   1.05646   1.07062

 Mulliken charges and spin densities:
               1          2
     1  O   -0.258615   0.251295
     2  O   -0.247895   0.255450
     3  O   -0.217099   0.255548
     4  O   -0.276391   0.237706
 Sum of Mulliken charges =  -1.00000   1.00000

 Dipole moment (field-independent basis, Debye):
    X=              0.0417    Y=              0.0018    Z=              0.0000  Tot=              0.0417
 Quadrupole moment (field-independent basis, Debye-Ang):
   XX=            -23.5409   YY=            -50.0303   ZZ=            -23.1891
   XY=             -3.3946   XZ=              0.0000   YZ=              0.0000

 14\CCSD(T)=-300.1490854\RMSD=1.535e-09\PG=CS [SG(O4)]\\@
 Normal termination of Gaussian 16 at Sun Feb 18 03:24:14 2024.
