 Gaussian 16, Revision A.03,
 Gaussian 16:  ES64L-G16RevA.03 25-Dec-2016

 -----------------------------------------------
 #p ROCCSD(T,MaxCyc=200)/cc-pVTZ SCF(MaxCyc=200)
 -----------------------------------------------

 ---------
 O2_O2_293
 ---------
 Symbolic Z-matrix:
 Charge = -1 Multiplicity = 2

                         Standard orientation:
 ---------------------------------------------------------------------
 Center     Atomic      Atomic             Coordinates (Angstroms)
 Number     Number       Type             X           Y           Z
 ---------------------------------------------------------------------
      1          8           0       -0.870000   -2.730000    0.000000
      2          8           0        0.290000   -2.730000    0.000000
      3          8           0        0.290000    2.150000    0.000000
      4          8           0        0.290000    3.310000    0.000000
 ---------------------------------------------------------------------

 SCF Done:  E(ROHF) =  -299.164595766     A.U. after   20 cycles
 E2 =    -0.9595116774D+00 EUMP2 =    -0.30012410744290D+03
 CCSD(T)
 CCSD(T)= -0.30014814463D+03

 The electronic state is 2-A'.
 Alpha  occ. eigenvalues --  -20.44542 -20.44146 -20.43972 -20.43863  -1.44249
 Alpha  occ. eigenvalues --   -1.43832  -0.85051  -0.84745  -0.52629  -0.52222
 Alpha  occ. eigenvalues --   -0.49832  -0.49532  -0.48496  -0.48174  -0.18759
 Alpha  occ. eigenvalues --   -0.18384  -0.00167
 Alpha virt. eigenvalues --    0.09626   0.63665   0.63820   0.91351   0.91710
 Alpha virt. eigenvalues --    0.92137   0.92485   0.93527   0.93638   1.03450
 Alpha virt. eigenvalues --    1.03666   1.03814   1.04130   1.04717   1.04975

 Mulliken charges and spin densities:
               1          2
     1  O   -0.255377   0.251332
     2  O   -0.249302   0.253354
     3  O   -0.225469   0.254520
     4  O   -0.269852   0.240795
 Sum of Mulliken charges =  -1.00000   1.00000

 Dipole moment (field-independent basis, Debye):
    X=              0.0277    Y=              0.0157    Z=              0.0000  Tot=              0.0318
 Quadrupole moment (field-independent basis, Debye-Ang):
   XX=            -23.5105   YY=            -60.0587   ZZ=            -23.1852
   XY=             -3.9342   XZ=              0.0000   YZ=              0.0000

 239\CCSD(T)=-300.1481446\RMSD=4.292e-09\PG=CS [SG(O4)]\\@
 Normal termination of Gaussian 16 at Sun Feb 18 05:55:28 2024.
