 Gaussian 16, Revision A.03,
 Gaussian 16:  ES64L-G16RevA.03 25-Dec-2016

 -----------------------------------------------
 #p ROCCSD(T,MaxCyc=200)/cc-pVTZ SCF(MaxCyc=200)
 -----------------------------------------------

 --------
 O2_O2_42
 --------
 Symbolic Z-matrix:
 Charge = -1 Multiplicity = 2

                         Standard orientation:
 ---------------------------------------------------------------------
 Center     Atomic      Atomic             Coordinates (Angstroms)
 Number     Number       Type             X           Y           Z
 ---------------------------------------------------------------------
      1          8           0        0.000000    0.000000    1.940000
      2          8           0        0.000000    0.000000    0.780000
      3          8           0        0.000000    0.000000   -0.780000
      4          8           0        0.000000    0.000000   -1.940000
 ---------------------------------------------------------------------

 SCF Done:  E(ROHF) =  -299.005761336     A.U. after   12 cycles
 E2 =    -0.1144710730D+01 EUMP2 =    -0.30015047206587D+03
 CCSD(T)
 CCSD(T)= -0.30011395481D+03

 Unable to determine electronic state:  an orbital has unidentified symmetry.
 Alpha  occ. eigenvalues --  -20.45557 -20.45551 -20.36458 -20.36458  -1.43252
 Alpha  occ. eigenvalues --   -1.40082  -0.94937  -0.74077  -0.54423  -0.53981
 Alpha  occ. eigenvalues --   -0.49172  -0.47148  -0.40341  -0.30321  -0.20017
 Alpha  occ. eigenvalues --   -0.13024  -0.05120
 Alpha virt. eigenvalues --    0.26565   0.71451   0.72353   0.91749   0.93632
 Alpha virt. eigenvalues --    0.98127   0.98295   0.99250   1.02883   1.05939
 Alpha virt. eigenvalues --    1.08565   1.12132   1.17223   1.23067   1.25578

 Mulliken charges and spin densities:
               1          2
     1  O   -0.435478   0.176093
     2  O   -0.064522   0.323907
     3  O   -0.064522   0.323907
     4  O   -0.435478   0.176093
 Sum of Mulliken charges =  -1.00000   1.00000

 Dipole moment (field-independent basis, Debye):
    X=             -0.0000    Y=              0.0000    Z=              0.0000  Tot=              0.0000
 Quadrupole moment (field-independent basis, Debye-Ang):
   XX=            -22.4175   YY=            -21.8616   ZZ=            -40.5409
   XY=              0.0000   XZ=              0.0000   YZ=              0.0000

 613\PMP2-0=-300.1504721\MP4SDQ=-300.0296732\CCSD=-300.0393207\CCSD(T)=
 Normal termination of Gaussian 16 at Sat Feb 17 21:21:11 2024.
