 Gaussian 16, Revision A.03,
 Gaussian 16:  ES64L-G16RevA.03 25-Dec-2016

 -----------------------------------------------
 #p ROCCSD(T,MaxCyc=200)/cc-pVTZ SCF(MaxCyc=200)
 -----------------------------------------------

 ---------
 O2_O2_210
 ---------
 Symbolic Z-matrix:
 Charge = -1 Multiplicity = 2

                         Standard orientation:
 ---------------------------------------------------------------------
 Center     Atomic      Atomic             Coordinates (Angstroms)
 Number     Number       Type             X           Y           Z
 ---------------------------------------------------------------------
      1          8           0        0.000000    0.000000    3.060000
      2          8           0        0.000000    0.000000    1.900000
      3          8           0        0.000000    0.000000   -1.900000
      4          8           0        0.000000    0.000000   -3.060000
 ---------------------------------------------------------------------

 SCF Done:  E(ROHF) =  -299.164480606     A.U. after   12 cycles
 E2 =    -0.9590691039D+00 EUMP2 =    -0.30012354971010D+03
 CCSD(T)
 CCSD(T)= -0.30014786123D+03

 Unable to determine electronic state:  an orbital has unidentified symmetry.
 Alpha  occ. eigenvalues --  -20.43711 -20.43711 -20.43182 -20.43182  -1.43394
 Alpha  occ. eigenvalues --   -1.43383  -0.84250  -0.84092  -0.51773  -0.51753
 Alpha  occ. eigenvalues --   -0.49055  -0.48781  -0.47863  -0.47518  -0.17924
 Alpha  occ. eigenvalues --   -0.17834  -0.00165
 Alpha virt. eigenvalues --    0.11040   0.59242   0.69417   0.89866   0.91868
 Alpha virt. eigenvalues --    0.92373   0.92671   0.93168   0.98899   1.03369
 Alpha virt. eigenvalues --    1.03773   1.04171   1.05306   1.05652   1.10458

 Mulliken charges and spin densities:
               1          2
     1  O   -0.278846   0.240971
     2  O   -0.221154   0.259029
     3  O   -0.221154   0.259029
     4  O   -0.278846   0.240971
 Sum of Mulliken charges =  -1.00000   1.00000

 Dipole moment (field-independent basis, Debye):
    X=             -0.0000    Y=              0.0000    Z=              0.0000  Tot=              0.0000
 Quadrupole moment (field-independent basis, Debye-Ang):
   XX=            -23.1885   YY=            -20.6822   ZZ=            -57.1929
   XY=              0.0000   XZ=              0.0000   YZ=              0.0000

 806\PMP2-0=-300.1235497\MP4SDQ=-300.1098177\CCSD=-300.1067499\CCSD(T)=
 Normal termination of Gaussian 16 at Sun Feb 18 02:40:53 2024.
