 Gaussian 16, Revision A.03,
 Gaussian 16:  ES64L-G16RevA.03 25-Dec-2016

 -----------------------------------------------
 #p ROCCSD(T,MaxCyc=200)/cc-pVTZ SCF(MaxCyc=200)
 -----------------------------------------------

 ---------
 O2_O2_117
 ---------
 Symbolic Z-matrix:
 Charge = -1 Multiplicity = 2

                         Standard orientation:
 ---------------------------------------------------------------------
 Center     Atomic      Atomic             Coordinates (Angstroms)
 Number     Number       Type             X           Y           Z
 ---------------------------------------------------------------------
      1          8           0        0.000000    0.000000    2.440000
      2          8           0        0.000000    0.000000    1.280000
      3          8           0        0.000000    0.000000   -1.280000
      4          8           0        0.000000    0.000000   -2.440000
 ---------------------------------------------------------------------

 SCF Done:  E(ROHF) =  -299.169388096     A.U. after   12 cycles
 E2 =    -0.9574660532D+00 EUMP2 =    -0.30012685414902D+03
 CCSD(T)
 CCSD(T)= -0.30015399206D+03

 Unable to determine electronic state:  an orbital has unidentified symmetry.
 Alpha  occ. eigenvalues --  -20.42292 -20.42290 -20.41134 -20.41134  -1.41758
 Alpha  occ. eigenvalues --   -1.41595  -0.83374  -0.81401  -0.50246  -0.49858
 Alpha  occ. eigenvalues --   -0.48732  -0.46457  -0.45307  -0.45303  -0.16716
 Alpha  occ. eigenvalues --   -0.15511  -0.01017
 Alpha virt. eigenvalues --    0.15937   0.66873   0.72039   0.91090   0.91661
 Alpha virt. eigenvalues --    0.92458   0.95154   0.95864   1.01455   1.01922
 Alpha virt. eigenvalues --    1.04682   1.10730   1.11896   1.13415   1.15090

 Mulliken charges and spin densities:
               1          2
     1  O   -0.308563   0.236705
     2  O   -0.191437   0.263295
     3  O   -0.191437   0.263295
     4  O   -0.308563   0.236705
 Sum of Mulliken charges =  -1.00000   1.00000

 Dipole moment (field-independent basis, Debye):
    X=             -0.0000    Y=              0.0000    Z=              0.0000  Tot=              0.0000
 Quadrupole moment (field-independent basis, Debye-Ang):
   XX=            -20.7626   YY=            -23.1993   ZZ=            -44.9242
   XY=              0.0000   XZ=              0.0000   YZ=              0.0000

 3881\PMP2-0=-300.1268541\MP4SDQ=-300.1160352\CCSD=-300.112717\CCSD(T)=
 Normal termination of Gaussian 16 at Sat Feb 17 23:55:41 2024.
