 Gaussian 16, Revision A.03,
 Gaussian 16:  ES64L-G16RevA.03 25-Dec-2016

 -----------------------------------------------
 #p ROCCSD(T,MaxCyc=200)/cc-pVTZ SCF(MaxCyc=200)
 -----------------------------------------------

 ---------
 O2_O2_133
 ---------
 Symbolic Z-matrix:
 Charge = -1 Multiplicity = 2

                         Standard orientation:
 ---------------------------------------------------------------------
 Center     Atomic      Atomic             Coordinates (Angstroms)
 Number     Number       Type             X           Y           Z
 ---------------------------------------------------------------------
      1          8           0        0.615183   -2.285183    0.000000
      2          8           0       -0.205061   -1.464939    0.000000
      3          8           0       -0.205061    1.295061    0.000000
      4          8           0       -0.205061    2.455061    0.000000
 ---------------------------------------------------------------------

 SCF Done:  E(ROHF) =  -299.166885626     A.U. after   17 cycles
 E2 =    -0.9577560677D+00 EUMP2 =    -0.30012464169365D+03
 CCSD(T)
 CCSD(T)= -0.30015171337D+03

 The electronic state is 2-A".
 Alpha  occ. eigenvalues --  -20.42510 -20.41999 -20.41712 -20.40989  -1.42001
 Alpha  occ. eigenvalues --   -1.41506  -0.83138  -0.81857  -0.50507  -0.49860
 Alpha  occ. eigenvalues --   -0.48163  -0.46446  -0.46144  -0.45562  -0.16516
 Alpha  occ. eigenvalues --   -0.15870  -0.00610
 Alpha virt. eigenvalues --    0.15094   0.64884   0.70680   0.90757   0.91405
 Alpha virt. eigenvalues --    0.91776   0.94970   0.96352   1.00472   1.02556
 Alpha virt. eigenvalues --    1.05413   1.07695   1.09936   1.12097   1.12468

 Mulliken charges and spin densities:
               1          2
     1  O   -0.286356   0.236184
     2  O   -0.205231   0.256074
     3  O   -0.204964   0.267581
     4  O   -0.303449   0.240161
 Sum of Mulliken charges =  -1.00000   1.00000

 Dipole moment (field-independent basis, Debye):
    X=             -0.1297    Y=             -0.2541    Z=              0.0000  Tot=              0.2853
 Quadrupole moment (field-independent basis, Debye-Ang):
   XX=            -24.0523   YY=            -44.1265   ZZ=            -20.7370
   XY=              2.8525   XZ=              0.0000   YZ=             -0.0000

 34447\CCSD=-300.1104059\CCSD(T)=-300.1517134\RMSD=4.216e-09\PG=CS [SG(
 Normal termination of Gaussian 16 at Sun Feb 18 00:23:52 2024.
