 Gaussian 16, Revision A.03,
 Gaussian 16:  ES64L-G16RevA.03 25-Dec-2016

 -----------------------------------------------
 #p ROCCSD(T,MaxCyc=200)/cc-pVTZ SCF(MaxCyc=200)
 -----------------------------------------------

 --------
 O2_O2_82
 --------
 Symbolic Z-matrix:
 Charge = -1 Multiplicity = 2

                         Standard orientation:
 ---------------------------------------------------------------------
 Center     Atomic      Atomic             Coordinates (Angstroms)
 Number     Number       Type             X           Y           Z
 ---------------------------------------------------------------------
      1          8           0        0.615183   -1.945183    0.000000
      2          8           0       -0.205061   -1.124939    0.000000
      3          8           0       -0.205061    0.955061   -0.000000
      4          8           0       -0.205061    2.115061   -0.000000
 ---------------------------------------------------------------------

 SCF Done:  E(ROHF) =  -299.178560079     A.U. after   19 cycles
 E2 =    -0.9392903428D+00 EUMP2 =    -0.30011785042210D+03
 CCSD(T)
 CCSD(T)= -0.30018145560D+03

 The electronic state is 2-A'.
 Alpha  occ. eigenvalues --  -20.52805 -20.51075 -20.28803 -20.27866  -1.49795
 Alpha  occ. eigenvalues --   -1.31264  -0.89059  -0.74265  -0.58599  -0.55218
 Alpha  occ. eigenvalues --   -0.48028  -0.42244  -0.38303  -0.36089  -0.24535
 Alpha  occ. eigenvalues --   -0.08992  -0.03856
 Alpha virt. eigenvalues --    0.24236   0.65399   0.74710   0.88291   0.88553
 Alpha virt. eigenvalues --    0.95234   0.95743   0.98925   1.03997   1.04417
 Alpha virt. eigenvalues --    1.07305   1.11112   1.15805   1.19241   1.20790

 Mulliken charges and spin densities:
               1          2
     1  O   -0.466855   0.494277
     2  O   -0.418072   0.505029
     3  O    0.063951  -0.001189
     4  O   -0.179024   0.001882
 Sum of Mulliken charges =  -1.00000   1.00000

 Dipole moment (field-independent basis, Debye):
    X=             -0.8510    Y=              5.1304    Z=             -0.0000  Tot=              5.2005
 Quadrupole moment (field-independent basis, Debye-Ang):
   XX=            -24.1192   YY=            -38.2184   ZZ=            -21.7248
   XY=              3.4611   XZ=             -0.0000   YZ=              0.0000

 9916\CCSD=-300.1435295\CCSD(T)=-300.1814556\RMSD=3.951e-09\PG=CS [SG(O
 Normal termination of Gaussian 16 at Sat Feb 17 22:42:42 2024.
