 Gaussian 16, Revision A.03,
 Gaussian 16:  ES64L-G16RevA.03 25-Dec-2016

 -----------------------------------------------
 #p ROCCSD(T,MaxCyc=200)/cc-pVTZ SCF(MaxCyc=200)
 -----------------------------------------------

 --------
 O2_O2_67
 --------
 Symbolic Z-matrix:
 Charge = -1 Multiplicity = 2

                         Standard orientation:
 ---------------------------------------------------------------------
 Center     Atomic      Atomic             Coordinates (Angstroms)
 Number     Number       Type             X           Y           Z
 ---------------------------------------------------------------------
      1          8           0        0.615183   -1.845183   -0.000000
      2          8           0       -0.205061   -1.024939   -0.000000
      3          8           0       -0.205061    0.855061    0.000000
      4          8           0       -0.205061    2.015061    0.000000
 ---------------------------------------------------------------------

 SCF Done:  E(ROHF) =  -299.158307235     A.U. after   18 cycles
 E2 =    -0.9509166972D+00 EUMP2 =    -0.30010922393267D+03
 CCSD(T)
 CCSD(T)= -0.30017062007D+03

 The electronic state is 2-A'.
 Alpha  occ. eigenvalues --  -20.50384 -20.48078 -20.30814 -20.28856  -1.47552
 Alpha  occ. eigenvalues --   -1.32807  -0.88440  -0.75133  -0.56440  -0.54277
 Alpha  occ. eigenvalues --   -0.46355  -0.43130  -0.39168  -0.35846  -0.22313
 Alpha  occ. eigenvalues --   -0.09907  -0.04656
 Alpha virt. eigenvalues --    0.26042   0.67162   0.74759   0.89612   0.90302
 Alpha virt. eigenvalues --    0.96684   0.97796   0.99797   1.03690   1.05208
 Alpha virt. eigenvalues --    1.08112   1.09818   1.15627   1.21430   1.21501

 Mulliken charges and spin densities:
               1          2
     1  O   -0.465588   0.474732
     2  O   -0.360898   0.522067
     3  O    0.046548  -0.000480
     4  O   -0.220062   0.003681
 Sum of Mulliken charges =  -1.00000   1.00000

 Dipole moment (field-independent basis, Debye):
    X=             -0.8284    Y=              4.0303    Z=              0.0000  Tot=              4.1145
 Quadrupole moment (field-independent basis, Debye-Ang):
   XX=            -24.1019   YY=            -37.3467   ZZ=            -21.7345
   XY=              3.4555   XZ=              0.0000   YZ=             -0.0000

 1662\CCSD=-300.1237032\CCSD(T)=-300.1706201\RMSD=8.974e-09\PG=CS [SG(O
 Normal termination of Gaussian 16 at Sat Feb 17 22:12:55 2024.
