 Gaussian 16, Revision A.03,
 Gaussian 16:  ES64L-G16RevA.03 25-Dec-2016

 -----------------------------------------------
 #p ROCCSD(T,MaxCyc=200)/cc-pVTZ SCF(MaxCyc=200)
 -----------------------------------------------

 --------
 O2_O2_99
 --------
 Symbolic Z-matrix:
 Charge = -1 Multiplicity = 2

                         Standard orientation:
 ---------------------------------------------------------------------
 Center     Atomic      Atomic             Coordinates (Angstroms)
 Number     Number       Type             X           Y           Z
 ---------------------------------------------------------------------
      1          8           0        0.000000    0.000000    2.320000
      2          8           0        0.000000    0.000000    1.160000
      3          8           0        0.000000    0.000000   -1.160000
      4          8           0        0.000000    0.000000   -2.320000
 ---------------------------------------------------------------------

 SCF Done:  E(ROHF) =  -299.034069035     A.U. after   13 cycles
 E2 =    -0.1310223080D+01 EUMP2 =    -0.30034429211467D+03
 CCSD(T)
 CCSD(T)= -0.30019690457D+03

 Unable to determine electronic state:  an orbital has unidentified symmetry.
 Alpha  occ. eigenvalues --  -20.45793 -20.45791 -20.41614 -20.41614  -1.43057
 Alpha  occ. eigenvalues --   -1.42741  -0.84984  -0.81580  -0.53101  -0.52400
 Alpha  occ. eigenvalues --   -0.50354  -0.45853  -0.45046  -0.44164  -0.19355
 Alpha  occ. eigenvalues --   -0.17753  -0.00946
 Alpha virt. eigenvalues --    0.18090   0.68311   0.71680   0.89740   0.91457
 Alpha virt. eigenvalues --    0.95154   0.95441   0.96371   1.00534   1.03008
 Alpha virt. eigenvalues --    1.04501   1.11151   1.12438   1.13248   1.16174

 Mulliken charges and spin densities:
               1          2
     1  O   -0.342983   0.210811
     2  O   -0.157017   0.289189
     3  O   -0.157017   0.289189
     4  O   -0.342983   0.210811
 Sum of Mulliken charges =  -1.00000   1.00000

 Dipole moment (field-independent basis, Debye):
    X=             -0.0000    Y=             -0.0000    Z=              0.0000  Tot=              0.0000
 Quadrupole moment (field-independent basis, Debye-Ang):
   XX=            -21.9539   YY=            -22.5412   ZZ=            -43.4119
   XY=              0.0000   XZ=              0.0000   YZ=              0.0000

 PMP2-0=-300.3442921\MP4SDQ=-299.8965136\CCSD=-300.0990499\CCSD(T)=-300
 Normal termination of Gaussian 16 at Sat Feb 17 23:20:21 2024.
