 Gaussian 16, Revision A.03,
 Gaussian 16:  ES64L-G16RevA.03 25-Dec-2016

 -----------------------------------------------
 #p ROCCSD(T,MaxCyc=200)/cc-pVTZ SCF(MaxCyc=200)
 -----------------------------------------------

 ---------
 O2_O2_234
 ---------
 Symbolic Z-matrix:
 Charge = -1 Multiplicity = 2

                         Standard orientation:
 ---------------------------------------------------------------------
 Center     Atomic      Atomic             Coordinates (Angstroms)
 Number     Number       Type             X           Y           Z
 ---------------------------------------------------------------------
      1          8           0        0.000000    0.000000    3.220000
      2          8           0        0.000000    0.000000    2.060000
      3          8           0        0.000000    0.000000   -2.060000
      4          8           0        0.000000    0.000000   -3.220000
 ---------------------------------------------------------------------

 SCF Done:  E(ROHF) =  -299.164067305     A.U. after   13 cycles
 E2 =    -0.9593477317D+00 EUMP2 =    -0.30012341503648D+03
 CCSD(T)
 CCSD(T)= -0.30014730594D+03

 Unable to determine electronic state:  an orbital has unidentified symmetry.
 Alpha  occ. eigenvalues --  -20.43999 -20.43998 -20.43543 -20.43543  -1.43714
 Alpha  occ. eigenvalues --   -1.43708  -0.84558  -0.84463  -0.52090  -0.52082
 Alpha  occ. eigenvalues --   -0.49333  -0.49195  -0.48159  -0.47881  -0.18228
 Alpha  occ. eigenvalues --   -0.18187  -0.00116
 Alpha virt. eigenvalues --    0.10294   0.60498   0.67713   0.91240   0.91704
 Alpha virt. eigenvalues --    0.91934   0.92510   0.92732   0.96828   1.03535
 Alpha virt. eigenvalues --    1.03921   1.03966   1.04415   1.04776   1.07924

 Mulliken charges and spin densities:
               1          2
     1  O   -0.276018   0.241875
     2  O   -0.223982   0.258125
     3  O   -0.223982   0.258125
     4  O   -0.276018   0.241875
 Sum of Mulliken charges =  -1.00000   1.00000

 Dipole moment (field-independent basis, Debye):
    X=             -0.0000    Y=              0.0000    Z=              0.0000  Tot=              0.0000
 Quadrupole moment (field-independent basis, Debye-Ang):
   XX=            -20.6755   YY=            -23.1867   ZZ=            -61.0063
   XY=              0.0000   XZ=              0.0000   YZ=              0.0000

 673\PMP2-0=-300.123415\MP4SDQ=-300.1092435\CCSD=-300.1062171\CCSD(T)=-
 Normal termination of Gaussian 16 at Sun Feb 18 03:30:51 2024.
