 Gaussian 16, Revision A.03,
 Gaussian 16:  ES64L-G16RevA.03 25-Dec-2016

 -----------------------------------------------
 #p ROCCSD(T,MaxCyc=200)/cc-pVTZ SCF(MaxCyc=200)
 -----------------------------------------------

 ---------
 O2_O2_185
 ---------
 Symbolic Z-matrix:
 Charge = -1 Multiplicity = 2

                         Standard orientation:
 ---------------------------------------------------------------------
 Center     Atomic      Atomic             Coordinates (Angstroms)
 Number     Number       Type             X           Y           Z
 ---------------------------------------------------------------------
      1          8           0       -0.870000   -2.010000    0.000000
      2          8           0        0.290000   -2.010000    0.000000
      3          8           0        0.290000    1.430000    0.000000
      4          8           0        0.290000    2.590000    0.000000
 ---------------------------------------------------------------------

 SCF Done:  E(ROHF) =  -299.168481825     A.U. after   16 cycles
 E2 =    -0.9579110944D+00 EUMP2 =    -0.30012639291954D+03
 CCSD(T)
 CCSD(T)= -0.30015219162D+03

 The electronic state is 2-A'.
 Alpha  occ. eigenvalues --  -20.43444 -20.42641 -20.42360 -20.42234  -1.42909
 Alpha  occ. eigenvalues --   -1.42154  -0.83622  -0.83109  -0.51297  -0.50570
 Alpha  occ. eigenvalues --   -0.48514  -0.47919  -0.47039  -0.46345  -0.17403
 Alpha  occ. eigenvalues --   -0.16750  -0.00580
 Alpha virt. eigenvalues --    0.13337   0.63579   0.65680   0.87464   0.92356
 Alpha virt. eigenvalues --    0.92761   0.94564   0.95094   0.99956   1.03265
 Alpha virt. eigenvalues --    1.04494   1.05944   1.06159   1.06490   1.10456

 Mulliken charges and spin densities:
               1          2
     1  O   -0.263332   0.250271
     2  O   -0.245004   0.258853
     3  O   -0.209256   0.256312
     4  O   -0.282409   0.234564
 Sum of Mulliken charges =  -1.00000   1.00000

 Dipole moment (field-independent basis, Debye):
    X=              0.0613    Y=             -0.0158    Z=              0.0000  Tot=              0.0633
 Quadrupole moment (field-independent basis, Debye-Ang):
   XX=            -23.5861   YY=            -43.8882   ZZ=            -23.1936
   XY=             -3.0152   XZ=              0.0000   YZ=              0.0000

 8\CCSD(T)=-300.1521916\RMSD=1.540e-09\PG=CS [SG(O4)]\\@
 Normal termination of Gaussian 16 at Sun Feb 18 02:01:35 2024.
