 Gaussian 16, Revision A.03,
 Gaussian 16:  ES64L-G16RevA.03 25-Dec-2016

 -----------------------------------------------
 #p ROCCSD(T,MaxCyc=200)/cc-pVTZ SCF(MaxCyc=200)
 -----------------------------------------------

 ---------
 O2_O2_260
 ---------
 Symbolic Z-matrix:
 Charge = -1 Multiplicity = 2

                         Standard orientation:
 ---------------------------------------------------------------------
 Center     Atomic      Atomic             Coordinates (Angstroms)
 Number     Number       Type             X           Y           Z
 ---------------------------------------------------------------------
      1          8           0       -0.870000   -2.510000    0.000000
      2          8           0        0.290000   -2.510000    0.000000
      3          8           0        0.290000    1.930000    0.000000
      4          8           0        0.290000    3.090000    0.000000
 ---------------------------------------------------------------------

 SCF Done:  E(ROHF) =  -299.165042307     A.U. after   15 cycles
 E2 =    -0.9590925134D+00 EUMP2 =    -0.30012413482046D+03
 CCSD(T)
 CCSD(T)= -0.30014845457D+03

 The electronic state is 2-A'.
 Alpha  occ. eigenvalues --  -20.44232 -20.43763 -20.43547 -20.43433  -1.43899
 Alpha  occ. eigenvalues --   -1.43400  -0.84684  -0.84324  -0.52280  -0.51795
 Alpha  occ. eigenvalues --   -0.49467  -0.49114  -0.48128  -0.47739  -0.18406
 Alpha  occ. eigenvalues --   -0.17960  -0.00219
 Alpha virt. eigenvalues --    0.10490   0.63912   0.64282   0.91395   0.91720
 Alpha virt. eigenvalues --    0.92472   0.92909   0.93926   0.94757   1.03805
 Alpha virt. eigenvalues --    1.03917   1.04084   1.04601   1.05212   1.05667

 Mulliken charges and spin densities:
               1          2
     1  O   -0.256838   0.251433
     2  O   -0.248826   0.254287
     3  O   -0.221396   0.255006
     4  O   -0.272939   0.239274
 Sum of Mulliken charges =  -1.00000   1.00000

 Dipole moment (field-independent basis, Debye):
    X=              0.0344    Y=              0.0124    Z=              0.0000  Tot=              0.0365
 Quadrupole moment (field-independent basis, Debye-Ang):
   XX=            -23.5233   YY=            -54.5975   ZZ=            -23.1869
   XY=             -3.6499   XZ=              0.0000   YZ=              0.0000

 1\CCSD(T)=-300.1484546\RMSD=6.317e-09\PG=CS [SG(O4)]\\@
 Normal termination of Gaussian 16 at Sun Feb 18 04:28:58 2024.
