 Gaussian 16, Revision A.03,
 Gaussian 16:  ES64L-G16RevA.03 25-Dec-2016

 -----------------------------------------------
 #p ROCCSD(T,MaxCyc=200)/cc-pVTZ SCF(MaxCyc=200)
 -----------------------------------------------

 ---------
 O2_O2_147
 ---------
 Symbolic Z-matrix:
 Charge = -1 Multiplicity = 2

                         Standard orientation:
 ---------------------------------------------------------------------
 Center     Atomic      Atomic             Coordinates (Angstroms)
 Number     Number       Type             X           Y           Z
 ---------------------------------------------------------------------
      1          8           0        0.000000    0.000000    2.640000
      2          8           0        0.000000    0.000000    1.480000
      3          8           0        0.000000    0.000000   -1.480000
      4          8           0        0.000000    0.000000   -2.640000
 ---------------------------------------------------------------------

 SCF Done:  E(ROHF) =  -299.167441853     A.U. after   12 cycles
 E2 =    -0.9580760080D+00 EUMP2 =    -0.30012551786099D+03
 CCSD(T)
 CCSD(T)= -0.30015151568D+03

 Unable to determine electronic state:  an orbital has unidentified symmetry.
 Alpha  occ. eigenvalues --  -20.42837 -20.42836 -20.41961 -20.41961  -1.42367
 Alpha  occ. eigenvalues --   -1.42307  -0.83459  -0.82642  -0.50787  -0.50636
 Alpha  occ. eigenvalues --   -0.48535  -0.47001  -0.46944  -0.46226  -0.17074
 Alpha  occ. eigenvalues --   -0.16523  -0.00538
 Alpha virt. eigenvalues --    0.13845   0.62614   0.71805   0.89145   0.91557
 Alpha virt. eigenvalues --    0.92264   0.94108   0.94858   1.01775   1.02244
 Alpha virt. eigenvalues --    1.03158   1.07278   1.10685   1.10910   1.11898

 Mulliken charges and spin densities:
               1          2
     1  O   -0.292472   0.238016
     2  O   -0.207528   0.261984
     3  O   -0.207528   0.261984
     4  O   -0.292472   0.238016
 Sum of Mulliken charges =  -1.00000   1.00000

 Dipole moment (field-independent basis, Debye):
    X=             -0.0000    Y=              0.0000    Z=              0.0000  Tot=              0.0000
 Quadrupole moment (field-independent basis, Debye-Ang):
   XX=            -23.1957   YY=            -20.7248   ZZ=            -48.4220
   XY=              0.0000   XZ=              0.0000   YZ=             -0.0000

 Normal termination of Gaussian 16 at Sun Feb 18 00:48:57 2024.
