 Gaussian 16, Revision A.03,
 Gaussian 16:  ES64L-G16RevA.03 25-Dec-2016

 -----------------------------------------------
 #p ROCCSD(T,MaxCyc=200)/cc-pVTZ SCF(MaxCyc=200)
 -----------------------------------------------

 ---------
 O2_O2_189
 ---------
 Symbolic Z-matrix:
 Charge = -1 Multiplicity = 2

                         Standard orientation:
 ---------------------------------------------------------------------
 Center     Atomic      Atomic             Coordinates (Angstroms)
 Number     Number       Type             X           Y           Z
 ---------------------------------------------------------------------
      1          8           0        0.000000    0.000000    2.920000
      2          8           0        0.000000    0.000000    1.760000
      3          8           0        0.000000    0.000000   -1.760000
      4          8           0        0.000000    0.000000   -2.920000
 ---------------------------------------------------------------------

 SCF Done:  E(ROHF) =  -299.165101717     A.U. after   12 cycles
 E2 =    -0.9587950612D+00 EUMP2 =    -0.30012389677791D+03
 CCSD(T)
 CCSD(T)= -0.30014866304D+03

 Unable to determine electronic state:  an orbital has unidentified symmetry.
 Alpha  occ. eigenvalues --  -20.43442 -20.43441 -20.42828 -20.42827  -1.43084
 Alpha  occ. eigenvalues --   -1.43066  -0.83968  -0.83707  -0.51469  -0.51430
 Alpha  occ. eigenvalues --   -0.48823  -0.48334  -0.47580  -0.47152  -0.17644
 Alpha  occ. eigenvalues --   -0.17473  -0.00236
 Alpha virt. eigenvalues --    0.11810   0.59004   0.70640   0.88880   0.91921
 Alpha virt. eigenvalues --    0.92714   0.92857   0.93645   1.00631   1.02980
 Alpha virt. eigenvalues --    1.03408   1.04749   1.06512   1.06834   1.11480

 Mulliken charges and spin densities:
               1          2
     1  O   -0.281673   0.240087
     2  O   -0.218327   0.259913
     3  O   -0.218327   0.259913
     4  O   -0.281673   0.240087
 Sum of Mulliken charges =  -1.00000   1.00000

 Dipole moment (field-independent basis, Debye):
    X=             -0.0000    Y=              0.0000    Z=              0.0000  Tot=              0.0000
 Quadrupole moment (field-independent basis, Debye-Ang):
   XX=            -20.6916   YY=            -23.1904   ZZ=            -54.0684
   XY=              0.0000   XZ=              0.0000   YZ=              0.0000

 1017\PMP2-0=-300.1238968\MP4SDQ=-300.110633\CCSD=-300.1075209\CCSD(T)=
 Normal termination of Gaussian 16 at Sun Feb 18 02:09:26 2024.
