 Gaussian 16, Revision A.03,
 Gaussian 16:  ES64L-G16RevA.03 25-Dec-2016

 -----------------------------------------------
 #p ROCCSD(T,MaxCyc=200)/cc-pVTZ SCF(MaxCyc=200)
 -----------------------------------------------

 --------
 O2_O2_74
 --------
 Symbolic Z-matrix:
 Charge = -1 Multiplicity = 2

                         Standard orientation:
 ---------------------------------------------------------------------
 Center     Atomic      Atomic             Coordinates (Angstroms)
 Number     Number       Type             X           Y           Z
 ---------------------------------------------------------------------
      1          8           0       -0.870000   -1.270000    0.000000
      2          8           0        0.290000   -1.270000    0.000000
      3          8           0        0.290000    0.690000    0.000000
      4          8           0        0.290000    1.850000    0.000000
 ---------------------------------------------------------------------

 SCF Done:  E(ROHF) =  -299.175720071     A.U. after   26 cycles
 E2 =    -0.9496254462D+00 EUMP2 =    -0.30012534551685D+03
 CCSD(T)
 CCSD(T)= -0.30017713808D+03

 The electronic state is 2-A".
 Alpha  occ. eigenvalues --  -20.49137 -20.47468 -20.30084 -20.29961  -1.46066
 Alpha  occ. eigenvalues --   -1.32841  -0.85869  -0.76577  -0.55173  -0.51922
 Alpha  occ. eigenvalues --   -0.47466  -0.44138  -0.39806  -0.33695  -0.21252
 Alpha  occ. eigenvalues --   -0.10865  -0.05463
 Alpha virt. eigenvalues --    0.28174   0.63573   0.75716   0.90340   0.90499
 Alpha virt. eigenvalues --    0.93190   0.99218   1.00836   1.01968   1.03084
 Alpha virt. eigenvalues --    1.07609   1.10263   1.14158   1.19737   1.22012

 Mulliken charges and spin densities:
               1          2
     1  O   -0.128424   0.000378
     2  O   -0.038575   0.000969
     3  O   -0.396408   0.455655
     4  O   -0.436592   0.542998
 Sum of Mulliken charges =  -1.00000   1.00000

 Dipole moment (field-independent basis, Debye):
    X=             -0.5880    Y=             -3.8028    Z=              0.0000  Tot=              3.8480
 Quadrupole moment (field-independent basis, Debye-Ang):
   XX=            -24.0865   YY=            -33.0069   ZZ=            -22.2220
   XY=             -2.2151   XZ=              0.0000   YZ=              0.0000

 98\CCSD(T)=-300.1771381\RMSD=6.487e-09\PG=CS [SG(O4)]\\@
 Normal termination of Gaussian 16 at Sat Feb 17 22:26:55 2024.
