 Gaussian 16, Revision A.03,
 Gaussian 16:  ES64L-G16RevA.03 25-Dec-2016

 -----------------------------------------------
 #p ROCCSD(T,MaxCyc=200)/cc-pVTZ SCF(MaxCyc=200)
 -----------------------------------------------

 ---------
 O2_O2_140
 ---------
 Symbolic Z-matrix:
 Charge = -1 Multiplicity = 2

                         Standard orientation:
 ---------------------------------------------------------------------
 Center     Atomic      Atomic             Coordinates (Angstroms)
 Number     Number       Type             X           Y           Z
 ---------------------------------------------------------------------
      1          8           0       -0.870000   -1.710000    0.000000
      2          8           0        0.290000   -1.710000    0.000000
      3          8           0        0.290000    1.130000    0.000000
      4          8           0        0.290000    2.290000    0.000000
 ---------------------------------------------------------------------

 SCF Done:  E(ROHF) =  -299.173243656     A.U. after   15 cycles
 E2 =    -0.9572421841D+00 EUMP2 =    -0.30013048583964D+03
 CCSD(T)
 CCSD(T)= -0.30015799589D+03

 The electronic state is 2-A'.
 Alpha  occ. eigenvalues --  -20.43060 -20.41828 -20.41218 -20.41105  -1.42259
 Alpha  occ. eigenvalues --   -1.40986  -0.82936  -0.81982  -0.50667  -0.49410
 Alpha  occ. eigenvalues --   -0.48339  -0.46833  -0.46211  -0.44633  -0.16749
 Alpha  occ. eigenvalues --   -0.15606  -0.01225
 Alpha virt. eigenvalues --    0.16111   0.65059   0.67793   0.88447   0.91803
 Alpha virt. eigenvalues --    0.92239   0.96114   0.96175   1.00382   1.03314
 Alpha virt. eigenvalues --    1.05148   1.05751   1.07725   1.08743   1.13027

 Mulliken charges and spin densities:
               1          2
     1  O   -0.274012   0.247645
     2  O   -0.241829   0.268754
     3  O   -0.193106   0.254909
     4  O   -0.291053   0.228692
 Sum of Mulliken charges =  -1.00000   1.00000

 Dipole moment (field-independent basis, Debye):
    X=              0.1156    Y=              0.0330    Z=              0.0000  Tot=              0.1202
 Quadrupole moment (field-independent basis, Debye-Ang):
   XX=            -23.6683   YY=            -38.6752   ZZ=            -23.2001
   XY=             -2.6361   XZ=              0.0000   YZ=              0.0000

 3\CCSD(T)=-300.1579959\RMSD=3.092e-09\PG=CS [SG(O4)]\\@
 Normal termination of Gaussian 16 at Sun Feb 18 00:36:44 2024.
