 Gaussian 16, Revision A.03,
 Gaussian 16:  ES64L-G16RevA.03 25-Dec-2016

 -----------------------------------------------
 #p ROCCSD(T,MaxCyc=200)/cc-pVTZ SCF(MaxCyc=200)
 -----------------------------------------------

 ---------
 O2_O2_251
 ---------
 Symbolic Z-matrix:
 Charge = -1 Multiplicity = 2

                         Standard orientation:
 ---------------------------------------------------------------------
 Center     Atomic      Atomic             Coordinates (Angstroms)
 Number     Number       Type             X           Y           Z
 ---------------------------------------------------------------------
      1          8           0       -0.870000   -2.450000    0.000000
      2          8           0        0.290000   -2.450000    0.000000
      3          8           0        0.290000    1.870000    0.000000
      4          8           0        0.290000    3.030000    0.000000
 ---------------------------------------------------------------------

 SCF Done:  E(ROHF) =  -299.165234794     A.U. after   15 cycles
 E2 =    -0.9589654357D+00 EUMP2 =    -0.30012420022972D+03
 CCSD(T)
 CCSD(T)= -0.30014857770D+03

 The electronic state is 2-A'.
 Alpha  occ. eigenvalues --  -20.44142 -20.43648 -20.43423 -20.43307  -1.43795
 Alpha  occ. eigenvalues --   -1.43272  -0.84574  -0.84199  -0.52176  -0.51669
 Alpha  occ. eigenvalues --   -0.49359  -0.48991  -0.48017  -0.47608  -0.18300
 Alpha  occ. eigenvalues --   -0.17835  -0.00239
 Alpha virt. eigenvalues --    0.10757   0.63945   0.64420   0.91117   0.91817
 Alpha virt. eigenvalues --    0.92563   0.93041   0.94044   0.95271   1.03874
 Alpha virt. eigenvalues --    1.03904   1.04217   1.04775   1.05344   1.05996

 Mulliken charges and spin densities:
               1          2
     1  O   -0.257314   0.251424
     2  O   -0.248617   0.254597
     3  O   -0.220162   0.255156
     4  O   -0.273908   0.238823
 Sum of Mulliken charges =  -1.00000   1.00000

 Dipole moment (field-independent basis, Debye):
    X=              0.0364    Y=              0.0102    Z=              0.0000  Tot=              0.0378
 Quadrupole moment (field-independent basis, Debye-Ang):
   XX=            -23.5279   YY=            -53.1880   ZZ=            -23.1875
   XY=             -3.5730   XZ=              0.0000   YZ=              0.0000

 712\CCSD(T)=-300.1485777\RMSD=5.914e-09\PG=CS [SG(O4)]\\@
 Normal termination of Gaussian 16 at Sun Feb 18 04:11:48 2024.
