 Gaussian 16, Revision A.03,
 Gaussian 16:  ES64L-G16RevA.03 25-Dec-2016

 -----------------------------------------------
 #p ROCCSD(T,MaxCyc=200)/cc-pVTZ SCF(MaxCyc=200)
 -----------------------------------------------

 ---------
 O2_O2_282
 ---------
 Symbolic Z-matrix:
 Charge = -1 Multiplicity = 2

                         Standard orientation:
 ---------------------------------------------------------------------
 Center     Atomic      Atomic             Coordinates (Angstroms)
 Number     Number       Type             X           Y           Z
 ---------------------------------------------------------------------
      1          8           0        0.000000    0.000000    3.540000
      2          8           0        0.000000    0.000000    2.380000
      3          8           0        0.000000    0.000000   -2.380000
      4          8           0        0.000000    0.000000   -3.540000
 ---------------------------------------------------------------------

 SCF Done:  E(ROHF) =  -299.163767397     A.U. after   13 cycles
 E2 =    -0.9598585836D+00 EUMP2 =    -0.30012362598018D+03
 CCSD(T)
 CCSD(T)= -0.30014687415D+03

 Unable to determine electronic state:  an orbital has unidentified symmetry.
 Alpha  occ. eigenvalues --  -20.44508 -20.44508 -20.44150 -20.44150  -1.44266
 Alpha  occ. eigenvalues --   -1.44263  -0.85108  -0.85063  -0.52640  -0.52639
 Alpha  occ. eigenvalues --   -0.49864  -0.49832  -0.48672  -0.48481  -0.18773
 Alpha  occ. eigenvalues --   -0.18766  -0.00076
 Alpha virt. eigenvalues --    0.09100   0.62615   0.64800   0.91266   0.91306
 Alpha virt. eigenvalues --    0.92072   0.92106   0.92813   0.94094   1.03330
 Alpha virt. eigenvalues --    1.03466   1.03705   1.03836   1.04174   1.05207

 Mulliken charges and spin densities:
               1          2
     1  O   -0.270974   0.243410
     2  O   -0.229026   0.256590
     3  O   -0.229026   0.256590
     4  O   -0.270974   0.243410
 Sum of Mulliken charges =  -1.00000   1.00000

 Dipole moment (field-independent basis, Debye):
    X=             -0.0000    Y=              0.0000    Z=              0.0000  Tot=              0.0000
 Quadrupole moment (field-independent basis, Debye-Ang):
   XX=            -20.6692   YY=            -23.1843   ZZ=            -69.3993
   XY=              0.0000   XZ=              0.0000   YZ=              0.0000

 674\PMP2-0=-300.123626\MP4SDQ=-300.1087626\CCSD=-300.1057983\CCSD(T)=-
 Normal termination of Gaussian 16 at Sun Feb 18 05:23:07 2024.
