 Gaussian 16, Revision A.03,
 Gaussian 16:  ES64L-G16RevA.03 25-Dec-2016

 -----------------------------------------------
 #p ROCCSD(T,MaxCyc=200)/cc-pVTZ SCF(MaxCyc=200)
 -----------------------------------------------

 ---------
 O2_O2_129
 ---------
 Symbolic Z-matrix:
 Charge = -1 Multiplicity = 2

                         Standard orientation:
 ---------------------------------------------------------------------
 Center     Atomic      Atomic             Coordinates (Angstroms)
 Number     Number       Type             X           Y           Z
 ---------------------------------------------------------------------
      1          8           0        0.000000    0.000000    2.520000
      2          8           0        0.000000    0.000000    1.360000
      3          8           0        0.000000    0.000000   -1.360000
      4          8           0        0.000000    0.000000   -2.520000
 ---------------------------------------------------------------------

 SCF Done:  E(ROHF) =  -299.168766577     A.U. after   12 cycles
 E2 =    -0.9577024966D+00 EUMP2 =    -0.30012646907390D+03
 CCSD(T)
 CCSD(T)= -0.30015313256D+03

 Unable to determine electronic state:  an orbital has unidentified symmetry.
 Alpha  occ. eigenvalues --  -20.42530 -20.42529 -20.41494 -20.41494  -1.42013
 Alpha  occ. eigenvalues --   -1.41905  -0.83351  -0.81970  -0.50466  -0.50200
 Alpha  occ. eigenvalues --   -0.48587  -0.46652  -0.46099  -0.45710  -0.16848
 Alpha  occ. eigenvalues --   -0.15964  -0.00785
 Alpha virt. eigenvalues --    0.15015   0.65221   0.71957   0.90741   0.91244
 Alpha virt. eigenvalues --    0.91873   0.94725   0.95451   1.01462   1.01930
 Alpha virt. eigenvalues --    1.04043   1.09114   1.11914   1.13224   1.13230

 Mulliken charges and spin densities:
               1          2
     1  O   -0.301032   0.237126
     2  O   -0.198968   0.262874
     3  O   -0.198968   0.262874
     4  O   -0.301032   0.237126
 Sum of Mulliken charges =  -1.00000   1.00000

 Dipole moment (field-independent basis, Debye):
    X=             -0.0000    Y=              0.0000    Z=             -0.0000  Tot=              0.0000
 Quadrupole moment (field-independent basis, Debye-Ang):
   XX=            -20.7461   YY=            -23.1981   ZZ=            -46.2635
   XY=              0.0000   XZ=              0.0000   YZ=              0.0000

 Normal termination of Gaussian 16 at Sun Feb 18 00:16:36 2024.
