 Gaussian 16, Revision A.03,
 Gaussian 16:  ES64L-G16RevA.03 25-Dec-2016

 -----------------------------------------------
 #p ROCCSD(T,MaxCyc=200)/cc-pVTZ SCF(MaxCyc=200)
 -----------------------------------------------

 --------
 O2_O2_22
 --------
 Symbolic Z-matrix:
 Charge = -1 Multiplicity = 2

                         Standard orientation:
 ---------------------------------------------------------------------
 Center     Atomic      Atomic             Coordinates (Angstroms)
 Number     Number       Type             X           Y           Z
 ---------------------------------------------------------------------
      1          8           0        0.615183   -1.545183    0.000000
      2          8           0       -0.205061   -0.724939    0.000000
      3          8           0       -0.205061    0.555061   -0.000000
      4          8           0       -0.205061    1.715061   -0.000000
 ---------------------------------------------------------------------

 SCF Done:  E(ROHF) =  -298.978247294     A.U. after   20 cycles
 E2 =    -0.9447123750D+00 EUMP2 =    -0.29992295966926D+03
 CCSD(T)
 CCSD(T)= -0.29996301333D+03

 The electronic state is 2-A".
 Alpha  occ. eigenvalues --  -20.47868 -20.42245 -20.36054 -20.28825  -1.48743
 Alpha  occ. eigenvalues --   -1.36784  -1.05445  -0.69349  -0.59958  -0.55112
 Alpha  occ. eigenvalues --   -0.52778  -0.45966  -0.41088  -0.21445  -0.18888
 Alpha  occ. eigenvalues --   -0.14104  -0.08496
 Alpha virt. eigenvalues --    0.42725   0.72089   0.76902   0.91230   0.92747
 Alpha virt. eigenvalues --    0.93474   0.98071   1.00118   1.03584   1.07357
 Alpha virt. eigenvalues --    1.09782   1.12063   1.15623   1.18197   1.25157

 Mulliken charges and spin densities:
               1          2
     1  O   -0.575645   0.023776
     2  O    0.054144   0.074919
     3  O   -0.038945   0.490611
     4  O   -0.439554   0.410694
 Sum of Mulliken charges =  -1.00000   1.00000

 Dipole moment (field-independent basis, Debye):
    X=             -0.9172    Y=              0.5824    Z=             -0.0000  Tot=              1.0865
 Quadrupole moment (field-independent basis, Debye-Ang):
   XX=            -24.1682   YY=            -37.1383   ZZ=            -21.7659
   XY=              3.8861   XZ=             -0.0000   YZ=              0.0000

 3622\CCSD=-299.9206617\CCSD(T)=-299.9630133\RMSD=5.944e-09\PG=CS [SG(O
 Normal termination of Gaussian 16 at Sat Feb 17 20:45:00 2024.
