 Gaussian 16, Revision A.03,
 Gaussian 16:  ES64L-G16RevA.03 25-Dec-2016

 -----------------------------------------------
 #p ROCCSD(T,MaxCyc=200)/cc-pVTZ SCF(MaxCyc=200)
 -----------------------------------------------

 ---------
 O2_O2_200
 ---------
 Symbolic Z-matrix:
 Charge = -1 Multiplicity = 2

                         Standard orientation:
 ---------------------------------------------------------------------
 Center     Atomic      Atomic             Coordinates (Angstroms)
 Number     Number       Type             X           Y           Z
 ---------------------------------------------------------------------
      1          8           0       -0.870000   -2.110000    0.000000
      2          8           0        0.290000   -2.110000    0.000000
      3          8           0        0.290000    1.530000    0.000000
      4          8           0        0.290000    2.690000    0.000000
 ---------------------------------------------------------------------

 SCF Done:  E(ROHF) =  -299.167373171     A.U. after   15 cycles
 E2 =    -0.9581622740D+00 EUMP2 =    -0.30012553544485D+03
 CCSD(T)
 CCSD(T)= -0.30015083417D+03

 The electronic state is 2-A'.
 Alpha  occ. eigenvalues --  -20.43599 -20.42892 -20.42639 -20.42514  -1.43125
 Alpha  occ. eigenvalues --   -1.42449  -0.83857  -0.83396  -0.51510  -0.50860
 Alpha  occ. eigenvalues --   -0.48694  -0.48201  -0.47287  -0.46703  -0.17621
 Alpha  occ. eigenvalues --   -0.17035  -0.00462
 Alpha virt. eigenvalues --    0.12630   0.63619   0.65321   0.88190   0.92320
 Alpha virt. eigenvalues --    0.92852   0.94107   0.94815   0.99221   1.03208
 Alpha virt. eigenvalues --    1.04376   1.05373   1.06056   1.06238   1.09116

 Mulliken charges and spin densities:
               1          2
     1  O   -0.261324   0.250742
     2  O   -0.246135   0.257321
     3  O   -0.212204   0.256133
     4  O   -0.280337   0.235803
 Sum of Mulliken charges =  -1.00000   1.00000

 Dipole moment (field-independent basis, Debye):
    X=              0.0525    Y=             -0.0130    Z=              0.0000  Tot=              0.0541
 Quadrupole moment (field-independent basis, Debye-Ang):
   XX=            -23.5677   YY=            -45.8383   ZZ=            -23.1919
   XY=             -3.1416   XZ=              0.0000   YZ=              0.0000

 59\CCSD(T)=-300.1508342\RMSD=8.316e-09\PG=CS [SG(O4)]\\@
 Normal termination of Gaussian 16 at Sun Feb 18 02:24:03 2024.
