 Gaussian 16, Revision A.03,
 Gaussian 16:  ES64L-G16RevA.03 25-Dec-2016

 -----------------------------------------------
 #p ROCCSD(T,MaxCyc=200)/cc-pVTZ SCF(MaxCyc=200)
 -----------------------------------------------

 --------
 O2_O2_15
 --------
 Symbolic Z-matrix:
 Charge = -1 Multiplicity = 2

                         Standard orientation:
 ---------------------------------------------------------------------
 Center     Atomic      Atomic             Coordinates (Angstroms)
 Number     Number       Type             X           Y           Z
 ---------------------------------------------------------------------
      1          8           0        0.000000    0.000000    1.760000
      2          8           0        0.000000    0.000000    0.600000
      3          8           0        0.000000    0.000000   -0.600000
      4          8           0        0.000000    0.000000   -1.760000
 ---------------------------------------------------------------------

 SCF Done:  E(ROHF) =  -298.697105431     A.U. after   13 cycles
 E2 =    -0.1124976528D+01 EUMP2 =    -0.29982208195919D+03
 CCSD(T)
 CCSD(T)= -0.29979931806D+03

 Unable to determine electronic state:  an orbital has unidentified symmetry.
 Alpha  occ. eigenvalues --  -20.47969 -20.47922 -20.30696 -20.30696  -1.51915
 Alpha  occ. eigenvalues --   -1.37648  -1.12701  -0.67582  -0.62790  -0.54867
 Alpha  occ. eigenvalues --   -0.54838  -0.46059  -0.36802  -0.21101  -0.09285
 Alpha  occ. eigenvalues --   -0.08428  -0.06297
 Alpha virt. eigenvalues --    0.33780   0.70503   0.74477   0.88159   0.90873
 Alpha virt. eigenvalues --    0.92454   0.94883   1.00402   1.01447   1.09607
 Alpha virt. eigenvalues --    1.11381   1.12179   1.24408   1.27263   1.35344

 Mulliken charges and spin densities:
               1          2
     1  O   -0.467026   0.158067
     2  O   -0.032974   0.341933
     3  O   -0.032974   0.341933
     4  O   -0.467026   0.158067
 Sum of Mulliken charges =  -1.00000   1.00000

 Dipole moment (field-independent basis, Debye):
    X=             -0.0000    Y=             -0.0000    Z=             -0.0000  Tot=              0.0000
 Quadrupole moment (field-independent basis, Debye-Ang):
   XX=            -22.0568   YY=            -21.4662   ZZ=            -42.5851
   XY=             -0.0000   XZ=              0.0000   YZ=             -0.0000

 4\PMP2-0=-299.822082\MP4SDQ=-299.7474441\CCSD=-299.7314364\CCSD(T)=-29
 Normal termination of Gaussian 16 at Sat Feb 17 20:33:11 2024.
