 Gaussian 16, Revision A.03,
 Gaussian 16:  ES64L-G16RevA.03 25-Dec-2016

 -----------------------------------------------
 #p ROCCSD(T,MaxCyc=200)/cc-pVTZ SCF(MaxCyc=200)
 -----------------------------------------------

 ---------
 O2_O2_158
 ---------
 Symbolic Z-matrix:
 Charge = -1 Multiplicity = 2

                         Standard orientation:
 ---------------------------------------------------------------------
 Center     Atomic      Atomic             Coordinates (Angstroms)
 Number     Number       Type             X           Y           Z
 ---------------------------------------------------------------------
      1          8           0       -0.870000   -1.830000    0.000000
      2          8           0        0.290000   -1.830000    0.000000
      3          8           0        0.290000    1.250000    0.000000
      4          8           0        0.290000    2.410000    0.000000
 ---------------------------------------------------------------------

 SCF Done:  E(ROHF) =  -299.171154403     A.U. after   15 cycles
 E2 =    -0.9574704785D+00 EUMP2 =    -0.30012862488155D+03
 CCSD(T)
 CCSD(T)= -0.30015540600D+03

 The electronic state is 2-A'.
 Alpha  occ. eigenvalues --  -20.43198 -20.42165 -20.41744 -20.41625  -1.42517
 Alpha  occ. eigenvalues --   -1.41515  -0.83196  -0.82492  -0.50913  -0.49939
 Alpha  occ. eigenvalues --   -0.48308  -0.47317  -0.46557  -0.45475  -0.17007
 Alpha  occ. eigenvalues --   -0.16128  -0.00901
 Alpha virt. eigenvalues --    0.14866   0.64242   0.66666   0.87310   0.92223
 Alpha virt. eigenvalues --    0.92285   0.95510   0.95680   1.00229   1.04127
 Alpha virt. eigenvalues --    1.04801   1.05347   1.07057   1.07415   1.12814

 Mulliken charges and spin densities:
               1          2
     1  O   -0.268685   0.248993
     2  O   -0.242981   0.263499
     3  O   -0.201573   0.256009
     4  O   -0.286761   0.231498
 Sum of Mulliken charges =  -1.00000   1.00000

 Dipole moment (field-independent basis, Debye):
    X=              0.0873    Y=              0.0005    Z=              0.0000  Tot=              0.0873
 Quadrupole moment (field-independent basis, Debye-Ang):
   XX=            -23.6301   YY=            -40.6410   ZZ=            -23.1971
   XY=             -2.7872   XZ=              0.0000   YZ=              0.0000

 237\CCSD(T)=-300.155406\RMSD=4.360e-09\PG=CS [SG(O4)]\\@
 Normal termination of Gaussian 16 at Sun Feb 18 01:10:44 2024.
