 Gaussian 16, Revision A.03,
 Gaussian 16:  ES64L-G16RevA.03 25-Dec-2016

 -----------------------------------------------
 #p ROCCSD(T,MaxCyc=200)/cc-pVTZ SCF(MaxCyc=200)
 -----------------------------------------------

 --------
 O2_O2_69
 --------
 Symbolic Z-matrix:
 Charge = -1 Multiplicity = 2

                         Standard orientation:
 ---------------------------------------------------------------------
 Center     Atomic      Atomic             Coordinates (Angstroms)
 Number     Number       Type             X           Y           Z
 ---------------------------------------------------------------------
      1          8           0        0.000000    0.000000    2.120000
      2          8           0        0.000000    0.000000    0.960000
      3          8           0        0.000000    0.000000   -0.960000
      4          8           0        0.000000    0.000000   -2.120000
 ---------------------------------------------------------------------

 SCF Done:  E(ROHF) =  -299.051706545     A.U. after   13 cycles
 E2 =    -0.1216308492D+01 EUMP2 =    -0.30026801503697D+03
 CCSD(T)
 CCSD(T)= -0.30018762438D+03

 Unable to determine electronic state:  an orbital has unidentified symmetry.
 Alpha  occ. eigenvalues --  -20.45819 -20.45817 -20.39648 -20.39648  -1.42734
 Alpha  occ. eigenvalues --   -1.41734  -0.87458  -0.78703  -0.53088  -0.52014
 Alpha  occ. eigenvalues --   -0.51164  -0.45898  -0.42645  -0.40320  -0.19446
 Alpha  occ. eigenvalues --   -0.15918  -0.02532
 Alpha virt. eigenvalues --    0.21620   0.70388   0.71750   0.90560   0.92452
 Alpha virt. eigenvalues --    0.96473   0.97663   0.99652   1.02502   1.05122
 Alpha virt. eigenvalues --    1.05675   1.11747   1.12732   1.20302   1.20819

 Mulliken charges and spin densities:
               1          2
     1  O   -0.383450   0.195428
     2  O   -0.116550   0.304572
     3  O   -0.116550   0.304572
     4  O   -0.383450   0.195428
 Sum of Mulliken charges =  -1.00000   1.00000

 Dipole moment (field-independent basis, Debye):
    X=             -0.0000    Y=             -0.0000    Z=             -0.0000  Tot=              0.0000
 Quadrupole moment (field-independent basis, Debye-Ang):
   XX=            -22.5412   YY=            -21.9820   ZZ=            -41.1765
   XY=              0.0000   XZ=              0.0000   YZ=              0.0000

 65\PMP2-0=-300.268015\MP4SDQ=-300.0343182\CCSD=-300.1008163\CCSD(T)=-3
 Normal termination of Gaussian 16 at Sat Feb 17 22:16:28 2024.
