 Gaussian 16, Revision A.03,
 Gaussian 16:  ES64L-G16RevA.03 25-Dec-2016

 -----------------------------------------------
 #p ROCCSD(T,MaxCyc=200)/cc-pVTZ SCF(MaxCyc=200)
 -----------------------------------------------

 --------
 O2_O2_29
 --------
 Symbolic Z-matrix:
 Charge = -1 Multiplicity = 2

                         Standard orientation:
 ---------------------------------------------------------------------
 Center     Atomic      Atomic             Coordinates (Angstroms)
 Number     Number       Type             X           Y           Z
 ---------------------------------------------------------------------
      1          8           0       -0.870000   -0.970000    0.000000
      2          8           0        0.290000   -0.970000    0.000000
      3          8           0        0.290000    0.390000    0.000000
      4          8           0        0.290000    1.550000    0.000000
 ---------------------------------------------------------------------

 SCF Done:  E(ROHF) =  -298.970213966     A.U. after   21 cycles
 E2 =    -0.9409167029D+00 EUMP2 =    -0.29991113066913D+03
 CCSD(T)
 CCSD(T)= -0.29995717121D+03

 The electronic state is 2-A".
 Alpha  occ. eigenvalues --  -20.49025 -20.36060 -20.35856 -20.26596  -1.48065
 Alpha  occ. eigenvalues --   -1.35061  -0.94035  -0.74867  -0.57074  -0.54128
 Alpha  occ. eigenvalues --   -0.47991  -0.44957  -0.42147  -0.18834  -0.17553
 Alpha  occ. eigenvalues --   -0.10505  -0.10325
 Alpha virt. eigenvalues --    0.40290   0.67735   0.72646   0.86776   0.93061
 Alpha virt. eigenvalues --    0.96401   0.98735   1.00616   1.05628   1.08912
 Alpha virt. eigenvalues --    1.12007   1.13960   1.16546   1.17717   1.28059

 Mulliken charges and spin densities:
               1          2
     1  O   -0.542421   0.002276
     2  O    0.060903   0.022753
     3  O   -0.121889   0.444425
     4  O   -0.396593   0.530546
 Sum of Mulliken charges =  -1.00000   1.00000

 Dipole moment (field-independent basis, Debye):
    X=              1.7933    Y=             -0.4693    Z=              0.0000  Tot=              1.8537
 Quadrupole moment (field-independent basis, Debye-Ang):
   XX=            -25.4446   YY=            -31.0941   ZZ=            -21.8739
   XY=             -3.6772   XZ=              0.0000   YZ=              0.0000

 \CCSD(T)=-299.9571712\RMSD=2.892e-09\PG=CS [SG(O4)]\\@
 Normal termination of Gaussian 16 at Sat Feb 17 20:56:53 2024.
