 Gaussian 16, Revision A.03,
 Gaussian 16:  ES64L-G16RevA.03 25-Dec-2016

 -----------------------------------------------
 #p ROCCSD(T,MaxCyc=200)/cc-pVTZ SCF(MaxCyc=200)
 -----------------------------------------------

 -------
 O2_O2_2
 -------
 Symbolic Z-matrix:
 Charge = -1 Multiplicity = 2

                         Standard orientation:
 ---------------------------------------------------------------------
 Center     Atomic      Atomic             Coordinates (Angstroms)
 Number     Number       Type             X           Y           Z
 ---------------------------------------------------------------------
      1          8           0       -0.870000   -0.790000    0.000000
      2          8           0        0.290000   -0.790000    0.000000
      3          8           0        0.290000    0.210000    0.000000
      4          8           0        0.290000    1.370000    0.000000
 ---------------------------------------------------------------------

 SCF Done:  E(ROHF) =  -298.652839686     A.U. after   16 cycles
 E2 =    -0.9146011316D+00 EUMP2 =    -0.29956744081720D+03
 CCSD(T)
 CCSD(T)= -0.29960295739D+03

 The electronic state is 2-A".
 Alpha  occ. eigenvalues --  -20.51552 -20.42130 -20.32422 -20.20098  -1.77738
 Alpha  occ. eigenvalues --   -1.32829  -1.09375  -0.78143  -0.76076  -0.58684
 Alpha  occ. eigenvalues --   -0.52350  -0.39848  -0.38758  -0.18862  -0.16795
 Alpha  occ. eigenvalues --   -0.05642  -0.04728
 Alpha virt. eigenvalues --    0.59636   0.66887   0.71330   0.88103   0.88602
 Alpha virt. eigenvalues --    0.92526   0.99633   1.01535   1.02917   1.09875
 Alpha virt. eigenvalues --    1.10922   1.14176   1.16475   1.23384   1.29452

 Mulliken charges and spin densities:
               1          2
     1  O   -0.802663   0.039515
     2  O    0.123370   0.298360
     3  O    0.209972   0.475894
     4  O   -0.530680   0.186231
 Sum of Mulliken charges =  -1.00000   1.00000

 Dipole moment (field-independent basis, Debye):
    X=              2.7792    Y=             -0.7489    Z=              0.0000  Tot=              2.8783
 Quadrupole moment (field-independent basis, Debye-Ang):
   XX=            -26.0664   YY=            -31.1252   ZZ=            -21.3450
   XY=             -4.2786   XZ=              0.0000   YZ=              0.0000

 CCSD(T)=-299.6029574\RMSD=3.365e-09\PG=CS [SG(O4)]\\@
 Normal termination of Gaussian 16 at Sat Feb 17 20:14:20 2024.
