 Gaussian 16, Revision A.03,
 Gaussian 16:  ES64L-G16RevA.03 25-Dec-2016

 -----------------------------------------------
 #p ROCCSD(T,MaxCyc=200)/cc-pVTZ SCF(MaxCyc=200)
 -----------------------------------------------

 --------
 O2_O2_62
 --------
 Symbolic Z-matrix:
 Charge = -1 Multiplicity = 2

                         Standard orientation:
 ---------------------------------------------------------------------
 Center     Atomic      Atomic             Coordinates (Angstroms)
 Number     Number       Type             X           Y           Z
 ---------------------------------------------------------------------
      1          8           0       -0.870000   -1.190000    0.000000
      2          8           0        0.290000   -1.190000    0.000000
      3          8           0        0.290000    0.610000    0.000000
      4          8           0        0.290000    1.770000    0.000000
 ---------------------------------------------------------------------

 SCF Done:  E(ROHF) =  -299.150550382     A.U. after   26 cycles
 E2 =    -0.9568569417D+00 EUMP2 =    -0.30010740732365D+03
 CCSD(T)
 CCSD(T)= -0.30015422541D+03

 The electronic state is 2-A".
 Alpha  occ. eigenvalues --  -20.47709 -20.44438 -20.31020 -20.30737  -1.44610
 Alpha  occ. eigenvalues --   -1.33714  -0.85364  -0.77311  -0.53733  -0.50310
 Alpha  occ. eigenvalues --   -0.48280  -0.44909  -0.40576  -0.30891  -0.19552
 Alpha  occ. eigenvalues --   -0.11658  -0.06350
 Alpha virt. eigenvalues --    0.30185   0.64727   0.75305   0.89582   0.91823
 Alpha virt. eigenvalues --    0.94206   0.99980   1.00775   1.03355   1.04213
 Alpha virt. eigenvalues --    1.09398   1.11672   1.14338   1.18948   1.24624

 Mulliken charges and spin densities:
               1          2
     1  O   -0.173027   0.000513
     2  O   -0.039346   0.001658
     3  O   -0.364444   0.444794
     4  O   -0.423184   0.553035
 Sum of Mulliken charges =  -1.00000   1.00000

 Dipole moment (field-independent basis, Debye):
    X=             -0.3068    Y=             -3.0548    Z=              0.0000  Tot=              3.0701
 Quadrupole moment (field-independent basis, Debye-Ang):
   XX=            -24.2171   YY=            -32.3112   ZZ=            -22.1856
   XY=             -2.2740   XZ=              0.0000   YZ=              0.0000

 4\CCSD(T)=-300.1542254\RMSD=8.517e-09\PG=CS [SG(O4)]\\@
 Normal termination of Gaussian 16 at Sat Feb 17 22:02:26 2024.
