 Gaussian 16, Revision A.03,
 Gaussian 16:  ES64L-G16RevA.03 25-Dec-2016

 -----------------------------------------------
 #p ROCCSD(T,MaxCyc=200)/cc-pVTZ SCF(MaxCyc=200)
 -----------------------------------------------

 --------
 O2_O2_11
 --------
 Symbolic Z-matrix:
 Charge = -1 Multiplicity = 2

                         Standard orientation:
 ---------------------------------------------------------------------
 Center     Atomic      Atomic             Coordinates (Angstroms)
 Number     Number       Type             X           Y           Z
 ---------------------------------------------------------------------
      1          8           0       -0.870000   -0.850000    0.000000
      2          8           0        0.290000   -0.850000    0.000000
      3          8           0        0.290000    0.270000    0.000000
      4          8           0        0.290000    1.430000    0.000000
 ---------------------------------------------------------------------

 SCF Done:  E(ROHF) =  -298.811996600     A.U. after   17 cycles
 E2 =    -0.9208730600D+00 EUMP2 =    -0.29973286965998D+03
 CCSD(T)
 CCSD(T)= -0.29977024030D+03

 The electronic state is 2-A".
 Alpha  occ. eigenvalues --  -20.50281 -20.42581 -20.35519 -20.19713  -1.64482
 Alpha  occ. eigenvalues --   -1.34515  -1.03426  -0.75706  -0.68342  -0.58415
 Alpha  occ. eigenvalues --   -0.51037  -0.42620  -0.40115  -0.19274  -0.17316
 Alpha  occ. eigenvalues --   -0.07555  -0.07200
 Alpha virt. eigenvalues --    0.52929   0.67521   0.71883   0.86304   0.90556
 Alpha virt. eigenvalues --    0.94707   0.99075   1.00746   1.03621   1.10612
 Alpha virt. eigenvalues --    1.11583   1.13247   1.16269   1.23047   1.27974

 Mulliken charges and spin densities:
               1          2
     1  O   -0.776124   0.026769
     2  O    0.081738   0.173862
     3  O    0.172463   0.507088
     4  O   -0.478077   0.292280
 Sum of Mulliken charges =  -1.00000   1.00000

 Dipole moment (field-independent basis, Debye):
    X=              2.7546    Y=             -0.1405    Z=              0.0000  Tot=              2.7582
 Quadrupole moment (field-independent basis, Debye-Ang):
   XX=            -26.1790   YY=            -31.1241   ZZ=            -21.5649
   XY=             -4.2720   XZ=              0.0000   YZ=              0.0000

 92\CCSD(T)=-299.7702403\RMSD=4.449e-09\PG=CS [SG(O4)]\\@
 Normal termination of Gaussian 16 at Sat Feb 17 20:27:11 2024.
