 Gaussian 16, Revision A.03,
 Gaussian 16:  ES64L-G16RevA.03 25-Dec-2016

 -----------------------------------------------
 #p ROCCSD(T,MaxCyc=200)/cc-pVTZ SCF(MaxCyc=200)
 -----------------------------------------------

 ---------
 O2_O2_270
 ---------
 Symbolic Z-matrix:
 Charge = -1 Multiplicity = 2

                         Standard orientation:
 ---------------------------------------------------------------------
 Center     Atomic      Atomic             Coordinates (Angstroms)
 Number     Number       Type             X           Y           Z
 ---------------------------------------------------------------------
      1          8           0        0.000000    0.000000    3.460000
      2          8           0        0.000000    0.000000    2.300000
      3          8           0        0.000000    0.000000   -2.300000
      4          8           0        0.000000    0.000000   -3.460000
 ---------------------------------------------------------------------

 SCF Done:  E(ROHF) =  -299.163802167     A.U. after   13 cycles
 E2 =    -0.9597368700D+00 EUMP2 =    -0.30012353903680D+03
 CCSD(T)
 CCSD(T)= -0.30014692993D+03

 Unable to determine electronic state:  an orbital has unidentified symmetry.
 Alpha  occ. eigenvalues --  -20.44389 -20.44389 -20.44011 -20.44011  -1.44138
 Alpha  occ. eigenvalues --   -1.44135  -0.84980  -0.84927  -0.52513  -0.52510
 Alpha  occ. eigenvalues --   -0.49737  -0.49690  -0.48553  -0.48345  -0.18645
 Alpha  occ. eigenvalues --   -0.18634  -0.00081
 Alpha virt. eigenvalues --    0.09369   0.62270   0.65383   0.91379   0.91441
 Alpha virt. eigenvalues --    0.92185   0.92241   0.92616   0.94567   1.03417
 Alpha virt. eigenvalues --    1.03641   1.03793   1.04011   1.04124   1.05630

 Mulliken charges and spin densities:
               1          2
     1  O   -0.272128   0.243059
     2  O   -0.227872   0.256941
     3  O   -0.227872   0.256941
     4  O   -0.272128   0.243059
 Sum of Mulliken charges =  -1.00000   1.00000

 Dipole moment (field-independent basis, Debye):
    X=             -0.0000    Y=              0.0000    Z=              0.0000  Tot=              0.0000
 Quadrupole moment (field-independent basis, Debye-Ang):
   XX=            -23.1848   YY=            -20.6702   ZZ=            -67.2058
   XY=              0.0000   XZ=              0.0000   YZ=              0.0000

 22\PMP2-0=-300.123539\MP4SDQ=-300.1088312\CCSD=-300.1058532\CCSD(T)=-3
 Normal termination of Gaussian 16 at Sun Feb 18 04:53:28 2024.
