 Gaussian 16, Revision A.03,
 Gaussian 16:  ES64L-G16RevA.03 25-Dec-2016

 -----------------------------------------------
 #p ROCCSD(T,MaxCyc=200)/cc-pVTZ SCF(MaxCyc=200)
 -----------------------------------------------

 ---------
 O2_O2_165
 ---------
 Symbolic Z-matrix:
 Charge = -1 Multiplicity = 2

                         Standard orientation:
 ---------------------------------------------------------------------
 Center     Atomic      Atomic             Coordinates (Angstroms)
 Number     Number       Type             X           Y           Z
 ---------------------------------------------------------------------
      1          8           0        0.000000    0.000000    2.760000
      2          8           0        0.000000    0.000000    1.600000
      3          8           0        0.000000    0.000000   -1.600000
      4          8           0        0.000000    0.000000   -2.760000
 ---------------------------------------------------------------------

 SCF Done:  E(ROHF) =  -299.166242473     A.U. after   12 cycles
 E2 =    -0.9584153580D+00 EUMP2 =    -0.30012465783099D+03
 CCSD(T)
 CCSD(T)= -0.30015007117D+03

 Unable to determine electronic state:  an orbital has unidentified symmetry.
 Alpha  occ. eigenvalues --  -20.43109 -20.43108 -20.42363 -20.42363  -1.42692
 Alpha  occ. eigenvalues --   -1.42657  -0.83655  -0.83163  -0.51091  -0.51007
 Alpha  occ. eigenvalues --   -0.48611  -0.47670  -0.47227  -0.46662  -0.17316
 Alpha  occ. eigenvalues --   -0.16978  -0.00373
 Alpha virt. eigenvalues --    0.12874   0.60439   0.71503   0.88549   0.91802
 Alpha virt. eigenvalues --    0.92562   0.93531   0.94302   1.02210   1.02294
 Alpha virt. eigenvalues --    1.02752   1.05944   1.08577   1.08852   1.11806

 Mulliken charges and spin densities:
               1          2
     1  O   -0.286534   0.238948
     2  O   -0.213466   0.261052
     3  O   -0.213466   0.261052
     4  O   -0.286534   0.238948
 Sum of Mulliken charges =  -1.00000   1.00000

 Dipole moment (field-independent basis, Debye):
    X=             -0.0000    Y=              0.0000    Z=             -0.0000  Tot=              0.0000
 Quadrupole moment (field-independent basis, Debye-Ang):
   XX=            -23.1932   YY=            -20.7078   ZZ=            -50.7418
   XY=              0.0000   XZ=              0.0000   YZ=             -0.0000

 425\PMP2-0=-300.1246578\MP4SDQ=-300.1120582\CCSD=-300.1088863\CCSD(T)=
 Normal termination of Gaussian 16 at Sun Feb 18 01:22:35 2024.
