 Gaussian 16, Revision A.03,
 Gaussian 16:  ES64L-G16RevA.03 25-Dec-2016

 -----------------------------------------------
 #p ROCCSD(T,MaxCyc=200)/cc-pVTZ SCF(MaxCyc=200)
 -----------------------------------------------

 ---------
 O2_O2_125
 ---------
 Symbolic Z-matrix:
 Charge = -1 Multiplicity = 2

                         Standard orientation:
 ---------------------------------------------------------------------
 Center     Atomic      Atomic             Coordinates (Angstroms)
 Number     Number       Type             X           Y           Z
 ---------------------------------------------------------------------
      1          8           0       -0.870000   -1.610000    0.000000
      2          8           0        0.290000   -1.610000    0.000000
      3          8           0        0.290000    1.030000    0.000000
      4          8           0        0.290000    2.190000    0.000000
 ---------------------------------------------------------------------

 SCF Done:  E(ROHF) =  -299.174711181     A.U. after   14 cycles
 E2 =    -0.9571882030D+00 EUMP2 =    -0.30013189938388D+03
 CCSD(T)
 CCSD(T)= -0.30016005054D+03

 The electronic state is 2-A'.
 Alpha  occ. eigenvalues --  -20.42960 -20.41536 -20.40678 -20.40564  -1.42056
 Alpha  occ. eigenvalues --   -1.40464  -0.82771  -0.81472  -0.50480  -0.48876
 Alpha  occ. eigenvalues --   -0.48544  -0.46374  -0.45896  -0.43679  -0.16548
 Alpha  occ. eigenvalues --   -0.15079  -0.01591
 Alpha virt. eigenvalues --    0.17322   0.65704   0.68954   0.90258   0.91439
 Alpha virt. eigenvalues --    0.92781   0.96479   0.96730   1.00709   1.01917
 Alpha virt. eigenvalues --    1.05553   1.06572   1.08745   1.09979   1.13193

 Mulliken charges and spin densities:
               1          2
     1  O   -0.280010   0.245949
     2  O   -0.241172   0.275357
     3  O   -0.182574   0.252909
     4  O   -0.296244   0.225784
 Sum of Mulliken charges =  -1.00000   1.00000

 Dipole moment (field-independent basis, Debye):
    X=              0.1500    Y=              0.0787    Z=              0.0000  Tot=              0.1693
 Quadrupole moment (field-independent basis, Debye-Ang):
   XX=            -23.7066   YY=            -37.1690   ZZ=            -23.2026
   XY=             -2.5146   XZ=              0.0000   YZ=              0.0000

 66\CCSD(T)=-300.1600505\RMSD=9.311e-09\PG=CS [SG(O4)]\\@
 Normal termination of Gaussian 16 at Sun Feb 18 00:10:23 2024.
