 Gaussian 16, Revision A.03,
 Gaussian 16:  ES64L-G16RevA.03 25-Dec-2016

 -----------------------------------------------
 #p ROCCSD(T,MaxCyc=200)/cc-pVTZ SCF(MaxCyc=200)
 -----------------------------------------------

 --------
 O2_O2_47
 --------
 Symbolic Z-matrix:
 Charge = -1 Multiplicity = 2

                         Standard orientation:
 ---------------------------------------------------------------------
 Center     Atomic      Atomic             Coordinates (Angstroms)
 Number     Number       Type             X           Y           Z
 ---------------------------------------------------------------------
      1          8           0       -0.870000   -1.090000    0.000000
      2          8           0        0.290000   -1.090000    0.000000
      3          8           0        0.290000    0.510000    0.000000
      4          8           0        0.290000    1.670000    0.000000
 ---------------------------------------------------------------------

 SCF Done:  E(ROHF) =  -299.091098809     A.U. after   23 cycles
 E2 =    -0.9624743006D+00 EUMP2 =    -0.30005357310970D+03
 CCSD(T)
 CCSD(T)= -0.30009644199D+03

 The electronic state is 2-A".
 Alpha  occ. eigenvalues --  -20.47082 -20.38832 -20.32423 -20.31796  -1.43798
 Alpha  occ. eigenvalues --   -1.34591  -0.87330  -0.76756  -0.53017  -0.50277
 Alpha  occ. eigenvalues --   -0.48272  -0.45423  -0.41706  -0.25499  -0.17691
 Alpha  occ. eigenvalues --   -0.12298  -0.08024
 Alpha virt. eigenvalues --    0.33485   0.66116   0.74428   0.88321   0.93372
 Alpha virt. eigenvalues --    0.95337   1.00004   1.00791   1.04928   1.05740
 Alpha virt. eigenvalues --    1.11257   1.13285   1.14554   1.17795   1.27819

 Mulliken charges and spin densities:
               1          2
     1  O   -0.270613   0.000800
     2  O   -0.013548   0.004573
     3  O   -0.306490   0.430630
     4  O   -0.409348   0.563998
 Sum of Mulliken charges =  -1.00000   1.00000

 Dipole moment (field-independent basis, Debye):
    X=              0.3028    Y=             -2.0701    Z=              0.0000  Tot=              2.0921
 Quadrupole moment (field-independent basis, Debye-Ang):
   XX=            -24.4992   YY=            -31.6472   ZZ=            -22.0930
   XY=             -2.6033   XZ=              0.0000   YZ=              0.0000

 5\CCSD(T)=-300.096442\RMSD=8.739e-09\PG=CS [SG(O4)]\\@
 Normal termination of Gaussian 16 at Sat Feb 17 21:31:30 2024.
