 Gaussian 16, Revision A.03,
 Gaussian 16:  ES64L-G16RevA.03 25-Dec-2016

 -----------------------------------------------
 #p ROCCSD(T,MaxCyc=200)/cc-pVTZ SCF(MaxCyc=200)
 -----------------------------------------------

 ---------
 O2_O2_179
 ---------
 Symbolic Z-matrix:
 Charge = -1 Multiplicity = 2

                         Standard orientation:
 ---------------------------------------------------------------------
 Center     Atomic      Atomic             Coordinates (Angstroms)
 Number     Number       Type             X           Y           Z
 ---------------------------------------------------------------------
      1          8           0       -0.870000   -1.970000    0.000000
      2          8           0        0.290000   -1.970000    0.000000
      3          8           0        0.290000    1.390000    0.000000
      4          8           0        0.290000    2.550000    0.000000
 ---------------------------------------------------------------------

 SCF Done:  E(ROHF) =  -299.169001584     A.U. after   15 cycles
 E2 =    -0.9578104127D+00 EUMP2 =    -0.30012681199673D+03
 CCSD(T)
 CCSD(T)= -0.30015281875D+03

 The electronic state is 2-A'.
 Alpha  occ. eigenvalues --  -20.43386 -20.42538 -20.42237 -20.42112  -1.42822
 Alpha  occ. eigenvalues --   -1.42025  -0.83527  -0.82985  -0.51211  -0.50444
 Alpha  occ. eigenvalues --   -0.48452  -0.47797  -0.46935  -0.46181  -0.17315
 Alpha  occ. eigenvalues --   -0.16625  -0.00638
 Alpha virt. eigenvalues --    0.13646   0.63635   0.65851   0.87279   0.92345
 Alpha virt. eigenvalues --    0.92690   0.94763   0.95215   1.00101   1.03402
 Alpha virt. eigenvalues --    1.04547   1.06086   1.06217   1.06584   1.11110

 Mulliken charges and spin densities:
               1          2
     1  O   -0.264304   0.250040
     2  O   -0.244539   0.259641
     3  O   -0.207886   0.256333
     4  O   -0.283271   0.233986
 Sum of Mulliken charges =  -1.00000   1.00000

 Dipole moment (field-independent basis, Debye):
    X=              0.0658    Y=             -0.0150    Z=              0.0000  Tot=              0.0675
 Quadrupole moment (field-independent basis, Debye-Ang):
   XX=            -23.5946   YY=            -43.1368   ZZ=            -23.1943
   XY=             -2.9647   XZ=              0.0000   YZ=              0.0000

 7\CCSD(T)=-300.1528187\RMSD=4.345e-09\PG=CS [SG(O4)]\\@
 Normal termination of Gaussian 16 at Sun Feb 18 01:49:35 2024.
