 Gaussian 16, Revision A.03,
 Gaussian 16:  ES64L-G16RevA.03 25-Dec-2016

 -----------------------------------------------
 #p ROCCSD(T,MaxCyc=200)/cc-pVTZ SCF(MaxCyc=200)
 -----------------------------------------------

 ---------
 O2_O2_174
 ---------
 Symbolic Z-matrix:
 Charge = -1 Multiplicity = 2

                         Standard orientation:
 ---------------------------------------------------------------------
 Center     Atomic      Atomic             Coordinates (Angstroms)
 Number     Number       Type             X           Y           Z
 ---------------------------------------------------------------------
      1          8           0        0.000000    0.000000    2.820000
      2          8           0        0.000000    0.000000    1.660000
      3          8           0        0.000000    0.000000   -1.660000
      4          8           0        0.000000    0.000000   -2.820000
 ---------------------------------------------------------------------

 SCF Done:  E(ROHF) =  -299.165752779     A.U. after   12 cycles
 E2 =    -0.9585675178D+00 EUMP2 =    -0.30012432029643D+03
 CCSD(T)
 CCSD(T)= -0.30014947369D+03

 Unable to determine electronic state:  an orbital has unidentified symmetry.
 Alpha  occ. eigenvalues --  -20.43237 -20.43237 -20.42546 -20.42546  -1.42844
 Alpha  occ. eigenvalues --   -1.42817  -0.83769  -0.83384  -0.51237  -0.51174
 Alpha  occ. eigenvalues --   -0.48680  -0.47944  -0.47363  -0.46857  -0.17439
 Alpha  occ. eigenvalues --   -0.17176  -0.00313
 Alpha virt. eigenvalues --    0.12448   0.59678   0.71250   0.88544   0.91874
 Alpha virt. eigenvalues --    0.92650   0.93264   0.94042   1.01669   1.02570
 Alpha virt. eigenvalues --    1.03017   1.05425   1.07706   1.08001   1.11721

 Mulliken charges and spin densities:
               1          2
     1  O   -0.284385   0.239392
     2  O   -0.215615   0.260608
     3  O   -0.215615   0.260608
     4  O   -0.284385   0.239392
 Sum of Mulliken charges =  -1.00000   1.00000

 Dipole moment (field-independent basis, Debye):
    X=             -0.0000    Y=              0.0000    Z=              0.0000  Tot=              0.0000
 Quadrupole moment (field-independent basis, Debye-Ang):
   XX=            -20.7009   YY=            -23.1921   ZZ=            -51.9586
   XY=              0.0000   XZ=              0.0000   YZ=              0.0000

 Normal termination of Gaussian 16 at Sun Feb 18 01:39:01 2024.
