 Gaussian 16, Revision A.03,
 Gaussian 16:  ES64L-G16RevA.03 25-Dec-2016

 -----------------------------------------------
 #p ROCCSD(T,MaxCyc=200)/cc-pVTZ SCF(MaxCyc=200)
 -----------------------------------------------

 --------
 O2_O2_12
 --------
 Symbolic Z-matrix:
 Charge = -1 Multiplicity = 2

                         Standard orientation:
 ---------------------------------------------------------------------
 Center     Atomic      Atomic             Coordinates (Angstroms)
 Number     Number       Type             X           Y           Z
 ---------------------------------------------------------------------
      1          8           0        0.000000    0.000000    1.740000
      2          8           0        0.000000    0.000000    0.580000
      3          8           0        0.000000    0.000000   -0.580000
      4          8           0        0.000000    0.000000   -1.740000
 ---------------------------------------------------------------------

 SCF Done:  E(ROHF) =  -298.631033815     A.U. after   13 cycles
 E2 =    -0.1129653382D+01 EUMP2 =    -0.29976068719681D+03
 CCSD(T)
 CCSD(T)= -0.29973685440D+03

 Unable to determine electronic state:  an orbital has unidentified symmetry.
 Alpha  occ. eigenvalues --  -20.48947 -20.48885 -20.29889 -20.29889  -1.54856
 Alpha  occ. eigenvalues --   -1.37439  -1.15024  -0.66872  -0.64936  -0.56867
 Alpha  occ. eigenvalues --   -0.54915  -0.45702  -0.36382  -0.21230  -0.09816
 Alpha  occ. eigenvalues --   -0.07844  -0.02441
 Alpha virt. eigenvalues --    0.34687   0.69901   0.74670   0.86464   0.90377
 Alpha virt. eigenvalues --    0.91887   0.93906   1.00653   1.01693   1.09851
 Alpha virt. eigenvalues --    1.11476   1.12129   1.24412   1.27312   1.37868

 Mulliken charges and spin densities:
               1          2
     1  O   -0.462205   0.156714
     2  O   -0.037795   0.343286
     3  O   -0.037795   0.343286
     4  O   -0.462205   0.156714
 Sum of Mulliken charges =  -1.00000   1.00000

 Dipole moment (field-independent basis, Debye):
    X=             -0.0000    Y=              0.0000    Z=              0.0000  Tot=              0.0000
 Quadrupole moment (field-independent basis, Debye-Ang):
   XX=            -21.4103   YY=            -22.0067   ZZ=            -43.1539
   XY=             -0.0000   XZ=              0.0000   YZ=             -0.0000

 338\PMP2-0=-299.7606872\MP4SDQ=-299.6871622\CCSD=-299.6680911\CCSD(T)=
 Normal termination of Gaussian 16 at Sat Feb 17 20:28:27 2024.
