 Gaussian 16, Revision A.03,
 Gaussian 16:  ES64L-G16RevA.03 25-Dec-2016

 -----------------------------------------------
 #p ROCCSD(T,MaxCyc=200)/cc-pVTZ SCF(MaxCyc=200)
 -----------------------------------------------

 ---------
 O2_O2_237
 ---------
 Symbolic Z-matrix:
 Charge = -1 Multiplicity = 2

                         Standard orientation:
 ---------------------------------------------------------------------
 Center     Atomic      Atomic             Coordinates (Angstroms)
 Number     Number       Type             X           Y           Z
 ---------------------------------------------------------------------
      1          8           0        0.000000    0.000000    3.240000
      2          8           0        0.000000    0.000000    2.080000
      3          8           0        0.000000    0.000000   -2.080000
      4          8           0        0.000000    0.000000   -3.240000
 ---------------------------------------------------------------------

 SCF Done:  E(ROHF) =  -299.164031985     A.U. after   13 cycles
 E2 =    -0.9593813000D+00 EUMP2 =    -0.30012341328520D+03
 CCSD(T)
 CCSD(T)= -0.30014725742D+03

 Unable to determine electronic state:  an orbital has unidentified symmetry.
 Alpha  occ. eigenvalues --  -20.44033 -20.44033 -20.43585 -20.43585  -1.43752
 Alpha  occ. eigenvalues --   -1.43746  -0.84596  -0.84505  -0.52128  -0.52120
 Alpha  occ. eigenvalues --   -0.49368  -0.49241  -0.48194  -0.47923  -0.18265
 Alpha  occ. eigenvalues --   -0.18228  -0.00112
 Alpha virt. eigenvalues --    0.10209   0.60675   0.67496   0.91399   0.91679
 Alpha virt. eigenvalues --    0.91887   0.92485   0.92685   0.96590   1.03538
 Alpha virt. eigenvalues --    1.03923   1.03967   1.04330   1.04692   1.07650

 Mulliken charges and spin densities:
               1          2
     1  O   -0.275675   0.241982
     2  O   -0.224325   0.258018
     3  O   -0.224325   0.258018
     4  O   -0.275675   0.241982
 Sum of Mulliken charges =  -1.00000   1.00000

 Dipole moment (field-independent basis, Debye):
    X=             -0.0000    Y=             -0.0000    Z=              0.0000  Tot=              0.0000
 Quadrupole moment (field-independent basis, Debye-Ang):
   XX=            -23.1866   YY=            -20.6749   ZZ=            -61.5010
   XY=              0.0000   XZ=              0.0000   YZ=              0.0000

 2\PMP2-0=-300.1234133\MP4SDQ=-300.1091923\CCSD=-300.1061705\CCSD(T)=-3
 Normal termination of Gaussian 16 at Sun Feb 18 03:40:11 2024.
