 Gaussian 16, Revision A.03,
 Gaussian 16:  ES64L-G16RevA.03 25-Dec-2016

 -----------------------------------------------
 #p ROCCSD(T,MaxCyc=200)/cc-pVTZ SCF(MaxCyc=200)
 -----------------------------------------------

 ---------
 O2_O2_264
 ---------
 Symbolic Z-matrix:
 Charge = -1 Multiplicity = 2

                         Standard orientation:
 ---------------------------------------------------------------------
 Center     Atomic      Atomic             Coordinates (Angstroms)
 Number     Number       Type             X           Y           Z
 ---------------------------------------------------------------------
      1          8           0        0.000000    0.000000    3.420000
      2          8           0        0.000000    0.000000    2.260000
      3          8           0        0.000000    0.000000   -2.260000
      4          8           0        0.000000    0.000000   -3.420000
 ---------------------------------------------------------------------

 SCF Done:  E(ROHF) =  -299.163826964     A.U. after   13 cycles
 E2 =    -0.9596743130D+00 EUMP2 =    -0.30012350127680D+03
 CCSD(T)
 CCSD(T)= -0.30014696740D+03

 Unable to determine electronic state:  an orbital has unidentified symmetry.
 Alpha  occ. eigenvalues --  -20.44327 -20.44327 -20.43938 -20.43938  -1.44072
 Alpha  occ. eigenvalues --   -1.44068  -0.84913  -0.84856  -0.52446  -0.52444
 Alpha  occ. eigenvalues --   -0.49672  -0.49616  -0.48491  -0.48273  -0.18579
 Alpha  occ. eigenvalues --   -0.18565  -0.00085
 Alpha virt. eigenvalues --    0.09510   0.62049   0.65716   0.91435   0.91513
 Alpha virt. eigenvalues --    0.92241   0.92313   0.92472   0.94852   1.03455
 Alpha virt. eigenvalues --    1.03741   1.03832   1.04091   1.04109   1.05890

 Mulliken charges and spin densities:
               1          2
     1  O   -0.272735   0.242876
     2  O   -0.227265   0.257124
     3  O   -0.227265   0.257124
     4  O   -0.272735   0.242876
 Sum of Mulliken charges =  -1.00000   1.00000

 Dipole moment (field-independent basis, Debye):
    X=             -0.0000    Y=              0.0000    Z=              0.0000  Tot=              0.0000
 Quadrupole moment (field-independent basis, Debye-Ang):
   XX=            -23.1851   YY=            -20.6708   ZZ=            -66.1328
   XY=              0.0000   XZ=              0.0000   YZ=              0.0000

 27\PMP2-0=-300.1235013\MP4SDQ=-300.1088751\CCSD=-300.1058899\CCSD(T)=-
 Normal termination of Gaussian 16 at Sun Feb 18 04:36:06 2024.
