 Gaussian 16, Revision A.03,
 Gaussian 16:  ES64L-G16RevA.03 25-Dec-2016

 -----------------------------------------------
 #p ROCCSD(T,MaxCyc=200)/cc-pVTZ SCF(MaxCyc=200)
 -----------------------------------------------

 ---------
 O2_O2_112
 ---------
 Symbolic Z-matrix:
 Charge = -1 Multiplicity = 2

                         Standard orientation:
 ---------------------------------------------------------------------
 Center     Atomic      Atomic             Coordinates (Angstroms)
 Number     Number       Type             X           Y           Z
 ---------------------------------------------------------------------
      1          8           0        0.615183   -2.145183    0.000000
      2          8           0       -0.205061   -1.324939    0.000000
      3          8           0       -0.205061    1.155061   -0.000000
      4          8           0       -0.205061    2.315061   -0.000000
 ---------------------------------------------------------------------

 SCF Done:  E(ROHF) =  -299.166436992     A.U. after   26 cycles
 E2 =    -0.9572568943D+00 EUMP2 =    -0.30012369388644D+03
 CCSD(T)
 CCSD(T)= -0.30015155633D+03

 The electronic state is 2-A".
 Alpha  occ. eigenvalues --  -20.41895 -20.41573 -20.40981 -20.40348  -1.41417
 Alpha  occ. eigenvalues --   -1.40987  -0.83089  -0.80877  -0.50189  -0.49366
 Alpha  occ. eigenvalues --   -0.48055  -0.46052  -0.44816  -0.44787  -0.15993
 Alpha  occ. eigenvalues --   -0.15212  -0.00982
 Alpha virt. eigenvalues --    0.16743   0.66754   0.71586   0.91139   0.91165
 Alpha virt. eigenvalues --    0.94138   0.95799   0.97327   1.01621   1.02787
 Alpha virt. eigenvalues --    1.06593   1.08058   1.12312   1.13206   1.15181

 Mulliken charges and spin densities:
               1          2
     1  O   -0.295174   0.236429
     2  O   -0.198070   0.256767
     3  O   -0.190594   0.267674
     4  O   -0.316162   0.239129
 Sum of Mulliken charges =  -1.00000   1.00000

 Dipole moment (field-independent basis, Debye):
    X=             -0.1560    Y=             -0.2244    Z=             -0.0000  Tot=              0.2733
 Quadrupole moment (field-independent basis, Debye-Ang):
   XX=            -24.0856   YY=            -41.9355   ZZ=            -20.7644
   XY=              2.7724   XZ=             -0.0000   YZ=              0.0000

 758\CCSD=-300.1101228\CCSD(T)=-300.1515563\RMSD=6.202e-09\PG=CS [SG(O4
 Normal termination of Gaussian 16 at Sat Feb 17 23:47:37 2024.
