 Gaussian 16, Revision A.03,
 Gaussian 16:  ES64L-G16RevA.03 25-Dec-2016

 -----------------------------------------------
 #p ROCCSD(T,MaxCyc=200)/cc-pVTZ SCF(MaxCyc=200)
 -----------------------------------------------

 ---------
 O2_O2_188
 ---------
 Symbolic Z-matrix:
 Charge = -1 Multiplicity = 2

                         Standard orientation:
 ---------------------------------------------------------------------
 Center     Atomic      Atomic             Coordinates (Angstroms)
 Number     Number       Type             X           Y           Z
 ---------------------------------------------------------------------
      1          8           0       -0.870000   -2.030000    0.000000
      2          8           0        0.290000   -2.030000    0.000000
      3          8           0        0.290000    1.450000    0.000000
      4          8           0        0.290000    2.610000    0.000000
 ---------------------------------------------------------------------

 SCF Done:  E(ROHF) =  -299.168238598     A.U. after   16 cycles
 E2 =    -0.9579614856D+00 EUMP2 =    -0.30012620008337D+03
 CCSD(T)
 CCSD(T)= -0.30015189637D+03

 The electronic state is 2-A'.
 Alpha  occ. eigenvalues --  -20.43475 -20.42692 -20.42418 -20.42293  -1.42953
 Alpha  occ. eigenvalues --   -1.42216  -0.83670  -0.83169  -0.51340  -0.50631
 Alpha  occ. eigenvalues --   -0.48548  -0.47978  -0.47089  -0.46422  -0.17447
 Alpha  occ. eigenvalues --   -0.16810  -0.00554
 Alpha virt. eigenvalues --    0.13189   0.63569   0.65602   0.87582   0.92356
 Alpha virt. eigenvalues --    0.92788   0.94467   0.95035   0.99852   1.03222
 Alpha virt. eigenvalues --    1.04469   1.05817   1.06165   1.06448   1.10156

 Mulliken charges and spin densities:
               1          2
     1  O   -0.262885   0.250376
     2  O   -0.245235   0.258500
     3  O   -0.209893   0.256289
     4  O   -0.281987   0.234834
 Sum of Mulliken charges =  -1.00000   1.00000

 Dipole moment (field-independent basis, Debye):
    X=              0.0593    Y=             -0.0158    Z=              0.0000  Tot=              0.0613
 Quadrupole moment (field-independent basis, Debye-Ang):
   XX=            -23.5821   YY=            -44.2701   ZZ=            -23.1932
   XY=             -3.0405   XZ=              0.0000   YZ=              0.0000

 9\CCSD(T)=-300.1518964\RMSD=9.197e-10\PG=CS [SG(O4)]\\@
 Normal termination of Gaussian 16 at Sun Feb 18 02:08:13 2024.
