 Gaussian 16, Revision A.03,
 Gaussian 16:  ES64L-G16RevA.03 25-Dec-2016

 -----------------------------------------------
 #p ROCCSD(T,MaxCyc=200)/cc-pVTZ SCF(MaxCyc=200)
 -----------------------------------------------

 ---------
 O2_O2_153
 ---------
 Symbolic Z-matrix:
 Charge = -1 Multiplicity = 2

                         Standard orientation:
 ---------------------------------------------------------------------
 Center     Atomic      Atomic             Coordinates (Angstroms)
 Number     Number       Type             X           Y           Z
 ---------------------------------------------------------------------
      1          8           0        0.000000    0.000000    2.680000
      2          8           0        0.000000    0.000000    1.520000
      3          8           0        0.000000    0.000000   -1.520000
      4          8           0        0.000000    0.000000   -2.680000
 ---------------------------------------------------------------------

 SCF Done:  E(ROHF) =  -299.167013066     A.U. after   12 cycles
 E2 =    -0.9581940417D+00 EUMP2 =    -0.30012520710773D+03
 CCSD(T)
 CCSD(T)= -0.30015100055D+03

 Unable to determine electronic state:  an orbital has unidentified symmetry.
 Alpha  occ. eigenvalues --  -20.42931 -20.42930 -20.42101 -20.42101  -1.42479
 Alpha  occ. eigenvalues --   -1.42429  -0.83518  -0.82830  -0.50890  -0.50766
 Alpha  occ. eigenvalues --   -0.48549  -0.47245  -0.47040  -0.46379  -0.17153
 Alpha  occ. eigenvalues --   -0.16684  -0.00475
 Alpha virt. eigenvalues --    0.13502   0.61811   0.71729   0.88849   0.91652
 Alpha virt. eigenvalues --    0.92380   0.93910   0.94667   1.01935   1.02402
 Alpha virt. eigenvalues --    1.02857   1.06786   1.09929   1.10172   1.11877

 Mulliken charges and spin densities:
               1          2
     1  O   -0.290225   0.238330
     2  O   -0.209775   0.261670
     3  O   -0.209775   0.261670
     4  O   -0.290225   0.238330
 Sum of Mulliken charges =  -1.00000   1.00000

 Dipole moment (field-independent basis, Debye):
    X=             -0.0000    Y=             -0.0000    Z=              0.0000  Tot=              0.0000
 Quadrupole moment (field-independent basis, Debye-Ang):
   XX=            -23.1949   YY=            -20.7186   ZZ=            -49.1781
   XY=              0.0000   XZ=              0.0000   YZ=             -0.0000

 131\PMP2-0=-300.1252071\MP4SDQ=-300.1129985\CCSD=-300.1097931\CCSD(T)=
 Normal termination of Gaussian 16 at Sun Feb 18 01:00:01 2024.
