 Gaussian 16, Revision A.03,
 Gaussian 16:  ES64L-G16RevA.03 25-Dec-2016

 -----------------------------------------------
 #p ROCCSD(T,MaxCyc=200)/cc-pVTZ SCF(MaxCyc=200)
 -----------------------------------------------

 ---------
 O2_O2_231
 ---------
 Symbolic Z-matrix:
 Charge = -1 Multiplicity = 2

                         Standard orientation:
 ---------------------------------------------------------------------
 Center     Atomic      Atomic             Coordinates (Angstroms)
 Number     Number       Type             X           Y           Z
 ---------------------------------------------------------------------
      1          8           0        0.000000    0.000000    3.200000
      2          8           0        0.000000    0.000000    2.040000
      3          8           0        0.000000    0.000000   -2.040000
      4          8           0        0.000000    0.000000   -3.200000
 ---------------------------------------------------------------------

 SCF Done:  E(ROHF) =  -299.164105772     A.U. after   12 cycles
 E2 =    -0.9593139543D+00 EUMP2 =    -0.30012341972628D+03
 CCSD(T)
 CCSD(T)= -0.30014735854D+03

 Unable to determine electronic state:  an orbital has unidentified symmetry.
 Alpha  occ. eigenvalues --  -20.43964 -20.43964 -20.43500 -20.43500  -1.43676
 Alpha  occ. eigenvalues --   -1.43669  -0.84521  -0.84420  -0.52052  -0.52043
 Alpha  occ. eigenvalues --   -0.49299  -0.49147  -0.48123  -0.47838  -0.18191
 Alpha  occ. eigenvalues --   -0.18146  -0.00121
 Alpha virt. eigenvalues --    0.10381   0.60321   0.67930   0.91076   0.91728
 Alpha virt. eigenvalues --    0.91983   0.92534   0.92781   0.97073   1.03528
 Alpha virt. eigenvalues --    1.03916   1.03970   1.04505   1.04864   1.08215

 Mulliken charges and spin densities:
               1          2
     1  O   -0.276363   0.241767
     2  O   -0.223637   0.258233
     3  O   -0.223637   0.258233
     4  O   -0.276363   0.241767
 Sum of Mulliken charges =  -1.00000   1.00000

 Dipole moment (field-independent basis, Debye):
    X=             -0.0000    Y=              0.0000    Z=              0.0000  Tot=              0.0000
 Quadrupole moment (field-independent basis, Debye-Ang):
   XX=            -20.6761   YY=            -23.1869   ZZ=            -60.5155
   XY=              0.0000   XZ=              0.0000   YZ=              0.0000

 Normal termination of Gaussian 16 at Sun Feb 18 03:25:28 2024.
