 Gaussian 16, Revision A.03,
 Gaussian 16:  ES64L-G16RevA.03 25-Dec-2016

 -----------------------------------------------
 #p ROCCSD(T,MaxCyc=200)/cc-pVTZ SCF(MaxCyc=200)
 -----------------------------------------------

 --------
 O2_O2_25
 --------
 Symbolic Z-matrix:
 Charge = -1 Multiplicity = 2

                         Standard orientation:
 ---------------------------------------------------------------------
 Center     Atomic      Atomic             Coordinates (Angstroms)
 Number     Number       Type             X           Y           Z
 ---------------------------------------------------------------------
      1          8           0        0.615183   -1.565183    0.000000
      2          8           0       -0.205061   -0.744939    0.000000
      3          8           0       -0.205061    0.575061   -0.000000
      4          8           0       -0.205061    1.735061   -0.000000
 ---------------------------------------------------------------------

 SCF Done:  E(ROHF) =  -298.996811094     A.U. after   21 cycles
 E2 =    -0.9464617589D+00 EUMP2 =    -0.29994327285254D+03
 CCSD(T)
 CCSD(T)= -0.29998348229D+03

 The electronic state is 2-A".
 Alpha  occ. eigenvalues --  -20.47705 -20.40291 -20.35832 -20.30278  -1.46827
 Alpha  occ. eigenvalues --   -1.36846  -1.03253  -0.69883  -0.58154  -0.53577
 Alpha  occ. eigenvalues --   -0.52468  -0.46205  -0.41118  -0.21167  -0.19766
 Alpha  occ. eigenvalues --   -0.13694  -0.09105
 Alpha virt. eigenvalues --    0.41001   0.72033   0.76289   0.91703   0.92973
 Alpha virt. eigenvalues --    0.94056   0.99073   0.99835   1.03418   1.06915
 Alpha virt. eigenvalues --    1.09418   1.12335   1.14982   1.18575   1.25384

 Mulliken charges and spin densities:
               1          2
     1  O   -0.537942   0.015363
     2  O    0.056638   0.049455
     3  O   -0.094760   0.476242
     4  O   -0.423936   0.458941
 Sum of Mulliken charges =  -1.00000   1.00000

 Dipole moment (field-independent basis, Debye):
    X=             -0.7974    Y=              0.2827    Z=             -0.0000  Tot=              0.8460
 Quadrupole moment (field-independent basis, Debye-Ang):
   XX=            -24.0769   YY=            -36.8921   ZZ=            -21.8113
   XY=              3.8329   XZ=             -0.0000   YZ=              0.0000

 8873\CCSD=-299.9403084\CCSD(T)=-299.9834823\RMSD=1.766e-09\PG=CS [SG(O
 Normal termination of Gaussian 16 at Sat Feb 17 20:50:06 2024.
