 Gaussian 16, Revision A.03,
 Gaussian 16:  ES64L-G16RevA.03 25-Dec-2016

 -----------------------------------------------
 #p ROCCSD(T,MaxCyc=200)/cc-pVTZ SCF(MaxCyc=200)
 -----------------------------------------------

 --------
 O2_O2_87
 --------
 Symbolic Z-matrix:
 Charge = -1 Multiplicity = 2

                         Standard orientation:
 ---------------------------------------------------------------------
 Center     Atomic      Atomic             Coordinates (Angstroms)
 Number     Number       Type             X           Y           Z
 ---------------------------------------------------------------------
      1          8           0        0.000000    0.000000    2.240000
      2          8           0        0.000000    0.000000    1.080000
      3          8           0        0.000000    0.000000   -1.080000
      4          8           0        0.000000    0.000000   -2.240000
 ---------------------------------------------------------------------

 SCF Done:  E(ROHF) =  -299.043395208     A.U. after   13 cycles
 E2 =    -0.1271896190D+01 EUMP2 =    -0.30031529139791D+03
 CCSD(T)
 CCSD(T)= -0.30019637182D+03

 Unable to determine electronic state:  an orbital has unidentified symmetry.
 Alpha  occ. eigenvalues --  -20.45837 -20.45835 -20.40959 -20.40959  -1.42904
 Alpha  occ. eigenvalues --   -1.42408  -0.85591  -0.80646  -0.53030  -0.51990
 Alpha  occ. eigenvalues --   -0.50890  -0.45808  -0.43649  -0.43600  -0.19345
 Alpha  occ. eigenvalues --   -0.17141  -0.01468
 Alpha virt. eigenvalues --    0.19319   0.69243   0.71705   0.89903   0.91707
 Alpha virt. eigenvalues --    0.95639   0.96851   0.97570   1.01102   1.03619
 Alpha virt. eigenvalues --    1.05154   1.11138   1.12872   1.15717   1.17920

 Mulliken charges and spin densities:
               1          2
     1  O   -0.358118   0.205432
     2  O   -0.141882   0.294568
     3  O   -0.141882   0.294568
     4  O   -0.358118   0.205432
 Sum of Mulliken charges =  -1.00000   1.00000

 Dipole moment (field-independent basis, Debye):
    X=             -0.0000    Y=             -0.0000    Z=             -0.0000  Tot=              0.0000
 Quadrupole moment (field-independent basis, Debye-Ang):
   XX=            -22.5494   YY=            -21.9749   ZZ=            -42.3751
   XY=              0.0000   XZ=              0.0000   YZ=              0.0000

 952\PMP2-0=-300.3152914\MP4SDQ=-299.9651373\CCSD=-300.1025213\CCSD(T)=
 Normal termination of Gaussian 16 at Sat Feb 17 22:52:30 2024.
