 Gaussian 16, Revision A.03,
 Gaussian 16:  ES64L-G16RevA.03 25-Dec-2016

 -----------------------------------------------
 #p ROCCSD(T,MaxCyc=200)/cc-pVTZ SCF(MaxCyc=200)
 -----------------------------------------------

 ---------
 O2_O2_275
 ---------
 Symbolic Z-matrix:
 Charge = -1 Multiplicity = 2

                         Standard orientation:
 ---------------------------------------------------------------------
 Center     Atomic      Atomic             Coordinates (Angstroms)
 Number     Number       Type             X           Y           Z
 ---------------------------------------------------------------------
      1          8           0       -0.870000   -2.610000    0.000000
      2          8           0        0.290000   -2.610000    0.000000
      3          8           0        0.290000    2.030000    0.000000
      4          8           0        0.290000    3.190000    0.000000
 ---------------------------------------------------------------------

 SCF Done:  E(ROHF) =  -299.164797780     A.U. after   16 cycles
 E2 =    -0.9592919749D+00 EUMP2 =    -0.30012408975506D+03
 CCSD(T)
 CCSD(T)= -0.30014829975D+03

 The electronic state is 2-A'.
 Alpha  occ. eigenvalues --  -20.44377 -20.43945 -20.43747 -20.43635  -1.44065
 Alpha  occ. eigenvalues --   -1.43603  -0.84857  -0.84522  -0.52445  -0.51996
 Alpha  occ. eigenvalues --   -0.49639  -0.49310  -0.48302  -0.47945  -0.18573
 Alpha  occ. eigenvalues --   -0.18159  -0.00191
 Alpha virt. eigenvalues --    0.10077   0.63816   0.64063   0.91522   0.91689
 Alpha virt. eigenvalues --    0.92317   0.92707   0.93738   0.94116   1.03641
 Alpha virt. eigenvalues --    1.03883   1.03915   1.04362   1.04982   1.05276

 Mulliken charges and spin densities:
               1          2
     1  O   -0.256123   0.251406
     2  O   -0.249086   0.253827
     3  O   -0.223339   0.254775
     4  O   -0.271451   0.239992
 Sum of Mulliken charges =  -1.00000   1.00000

 Dipole moment (field-independent basis, Debye):
    X=              0.0312    Y=              0.0147    Z=              0.0000  Tot=              0.0344
 Quadrupole moment (field-independent basis, Debye-Ang):
   XX=            -23.5169   YY=            -57.0224   ZZ=            -23.1861
   XY=             -3.7786   XZ=              0.0000   YZ=              0.0000

 31\CCSD(T)=-300.1482998\RMSD=5.273e-09\PG=CS [SG(O4)]\\@
 Normal termination of Gaussian 16 at Sun Feb 18 05:09:23 2024.
