 Gaussian 16, Revision A.03,
 Gaussian 16:  ES64L-G16RevA.03 25-Dec-2016

 -----------------------------------------------
 #p ROCCSD(T,MaxCyc=200)/cc-pVTZ SCF(MaxCyc=200)
 -----------------------------------------------

 ---------
 O2_O2_123
 ---------
 Symbolic Z-matrix:
 Charge = -1 Multiplicity = 2

                         Standard orientation:
 ---------------------------------------------------------------------
 Center     Atomic      Atomic             Coordinates (Angstroms)
 Number     Number       Type             X           Y           Z
 ---------------------------------------------------------------------
      1          8           0        0.000000    0.000000    2.480000
      2          8           0        0.000000    0.000000    1.320000
      3          8           0        0.000000    0.000000   -1.320000
      4          8           0        0.000000    0.000000   -2.480000
 ---------------------------------------------------------------------

 SCF Done:  E(ROHF) =  -299.169134900     A.U. after   12 cycles
 E2 =    -0.9575795337D+00 EUMP2 =    -0.30012671443392D+03
 CCSD(T)
 CCSD(T)= -0.30015361384D+03

 Unable to determine electronic state:  an orbital has unidentified symmetry.
 Alpha  occ. eigenvalues --  -20.42415 -20.42414 -20.41320 -20.41319  -1.41887
 Alpha  occ. eigenvalues --   -1.41755  -0.83349  -0.81700  -0.50357  -0.50035
 Alpha  occ. eigenvalues --   -0.48646  -0.46554  -0.45725  -0.45515  -0.16780
 Alpha  occ. eigenvalues --   -0.15747  -0.00893
 Alpha virt. eigenvalues --    0.15460   0.66071   0.71999   0.91155   0.91534
 Alpha virt. eigenvalues --    0.91755   0.94938   0.95656   1.01435   1.01902
 Alpha virt. eigenvalues --    1.04354   1.09876   1.11908   1.13319   1.14149

 Mulliken charges and spin densities:
               1          2
     1  O   -0.304588   0.236886
     2  O   -0.195412   0.263114
     3  O   -0.195412   0.263114
     4  O   -0.304588   0.236886
 Sum of Mulliken charges =  -1.00000   1.00000

 Dipole moment (field-independent basis, Debye):
    X=             -0.0000    Y=             -0.0000    Z=              0.0000  Tot=              0.0000
 Quadrupole moment (field-independent basis, Debye-Ang):
   XX=            -20.7542   YY=            -23.1988   ZZ=            -45.5832
   XY=              0.0000   XZ=              0.0000   YZ=              0.0000

 349\PMP2-0=-300.1267144\MP4SDQ=-300.1156476\CCSD=-300.1123497\CCSD(T)=
 Normal termination of Gaussian 16 at Sun Feb 18 00:06:35 2024.
