 Gaussian 16, Revision A.03,
 Gaussian 16:  ES64L-G16RevA.03 25-Dec-2016

 -----------------------------------------------
 #p ROCCSD(T,MaxCyc=200)/cc-pVTZ SCF(MaxCyc=200)
 -----------------------------------------------

 ---------
 O2_O2_243
 ---------
 Symbolic Z-matrix:
 Charge = -1 Multiplicity = 2

                         Standard orientation:
 ---------------------------------------------------------------------
 Center     Atomic      Atomic             Coordinates (Angstroms)
 Number     Number       Type             X           Y           Z
 ---------------------------------------------------------------------
      1          8           0        0.000000    0.000000    3.280000
      2          8           0        0.000000    0.000000    2.120000
      3          8           0        0.000000    0.000000   -2.120000
      4          8           0        0.000000    0.000000   -3.280000
 ---------------------------------------------------------------------

 SCF Done:  E(ROHF) =  -299.163970048     A.U. after   13 cycles
 E2 =    -0.9594478465D+00 EUMP2 =    -0.30012341789448D+03
 CCSD(T)
 CCSD(T)= -0.30014717170D+03

 Unable to determine electronic state:  an orbital has unidentified symmetry.
 Alpha  occ. eigenvalues --  -20.44101 -20.44100 -20.43667 -20.43667  -1.43827
 Alpha  occ. eigenvalues --   -1.43821  -0.84669  -0.84588  -0.52202  -0.52195
 Alpha  occ. eigenvalues --   -0.49437  -0.49330  -0.48262  -0.48005  -0.18337
 Alpha  occ. eigenvalues --   -0.18307  -0.00104
 Alpha virt. eigenvalues --    0.10044   0.61022   0.67070   0.91627   0.91696
 Alpha virt. eigenvalues --    0.91795   0.92433   0.92594   0.96139   1.03536
 Alpha virt. eigenvalues --    1.03918   1.03980   1.04174   1.04538   1.07156

 Mulliken charges and spin densities:
               1          2
     1  O   -0.274997   0.242190
     2  O   -0.225003   0.257810
     3  O   -0.225003   0.257810
     4  O   -0.274997   0.242190
 Sum of Mulliken charges =  -1.00000   1.00000

 Dipole moment (field-independent basis, Debye):
    X=             -0.0000    Y=             -0.0000    Z=              0.0000  Tot=              0.0000
 Quadrupole moment (field-independent basis, Debye-Ang):
   XX=            -20.6737   YY=            -23.1862   ZZ=            -62.5025
   XY=              0.0000   XZ=              0.0000   YZ=              0.0000

 PMP2-0=-300.1234179\MP4SDQ=-300.1091008\CCSD=-300.1060878\CCSD(T)=-300
 Normal termination of Gaussian 16 at Sun Feb 18 03:53:08 2024.
