 Gaussian 16, Revision A.03,
 Gaussian 16:  ES64L-G16RevA.03 25-Dec-2016

 -----------------------------------------------
 #p ROCCSD(T,MaxCyc=200)/cc-pVTZ SCF(MaxCyc=200)
 -----------------------------------------------

 ---------
 O2_O2_150
 ---------
 Symbolic Z-matrix:
 Charge = -1 Multiplicity = 2

                         Standard orientation:
 ---------------------------------------------------------------------
 Center     Atomic      Atomic             Coordinates (Angstroms)
 Number     Number       Type             X           Y           Z
 ---------------------------------------------------------------------
      1          8           0        0.000000    0.000000    2.660000
      2          8           0        0.000000    0.000000    1.500000
      3          8           0        0.000000    0.000000   -1.500000
      4          8           0        0.000000    0.000000   -2.660000
 ---------------------------------------------------------------------

 SCF Done:  E(ROHF) =  -299.167224486     A.U. after   12 cycles
 E2 =    -0.9581355960D+00 EUMP2 =    -0.30012536008162D+03
 CCSD(T)
 CCSD(T)= -0.30015125454D+03

 Unable to determine electronic state:  an orbital has unidentified symmetry.
 Alpha  occ. eigenvalues --  -20.42884 -20.42883 -20.42032 -20.42032  -1.42423
 Alpha  occ. eigenvalues --   -1.42369  -0.83487  -0.82738  -0.50839  -0.50702
 Alpha  occ. eigenvalues --   -0.48540  -0.47126  -0.46992  -0.46304  -0.17113
 Alpha  occ. eigenvalues --   -0.16605  -0.00505
 Alpha virt. eigenvalues --    0.13671   0.62205   0.71770   0.88984   0.91606
 Alpha virt. eigenvalues --    0.92324   0.94008   0.94762   1.01852   1.02321
 Alpha virt. eigenvalues --    1.03009   1.07025   1.10300   1.10535   1.11888

 Mulliken charges and spin densities:
               1          2
     1  O   -0.291313   0.238173
     2  O   -0.208687   0.261827
     3  O   -0.208687   0.261827
     4  O   -0.291313   0.238173
 Sum of Mulliken charges =  -1.00000   1.00000

 Dipole moment (field-independent basis, Debye):
    X=             -0.0000    Y=              0.0000    Z=             -0.0000  Tot=              0.0000
 Quadrupole moment (field-independent basis, Debye-Ang):
   XX=            -20.7216   YY=            -23.1953   ZZ=            -48.7979
   XY=              0.0000   XZ=              0.0000   YZ=              0.0000

 45\PMP2-0=-300.1253601\MP4SDQ=-300.1132555\CCSD=-300.1100414\CCSD(T)=-
 Normal termination of Gaussian 16 at Sun Feb 18 00:54:26 2024.
