 Gaussian 16, Revision A.03,
 Gaussian 16:  ES64L-G16RevA.03 25-Dec-2016

 -----------------------------------------------
 #p ROCCSD(T,MaxCyc=200)/cc-pVTZ SCF(MaxCyc=200)
 -----------------------------------------------

 ---------
 O2_O2_221
 ---------
 Symbolic Z-matrix:
 Charge = -1 Multiplicity = 2

                         Standard orientation:
 ---------------------------------------------------------------------
 Center     Atomic      Atomic             Coordinates (Angstroms)
 Number     Number       Type             X           Y           Z
 ---------------------------------------------------------------------
      1          8           0       -0.870000   -2.250000    0.000000
      2          8           0        0.290000   -2.250000    0.000000
      3          8           0        0.290000    1.670000    0.000000
      4          8           0        0.290000    2.830000    0.000000
 ---------------------------------------------------------------------

 SCF Done:  E(ROHF) =  -299.166230912     A.U. after   15 cycles
 E2 =    -0.9585062646D+00 EUMP2 =    -0.30012473717672D+03
 CCSD(T)
 CCSD(T)= -0.30014946398D+03

 The electronic state is 2-A'.
 Alpha  occ. eigenvalues --  -20.43826 -20.43224 -20.42983 -20.42861  -1.43415
 Alpha  occ. eigenvalues --   -1.42814  -0.84170  -0.83751  -0.51798  -0.51217
 Alpha  occ. eigenvalues --   -0.48971  -0.48550  -0.47610  -0.47118  -0.17916
 Alpha  occ. eigenvalues --   -0.17388  -0.00343
 Alpha virt. eigenvalues --    0.11772   0.63840   0.64915   0.89526   0.92149
 Alpha virt. eigenvalues --    0.92813   0.93584   0.94471   0.97574   1.03502
 Alpha virt. eigenvalues --    1.04205   1.04784   1.05580   1.05779   1.07630

 Mulliken charges and spin densities:
               1          2
     1  O   -0.259292   0.251180
     2  O   -0.247460   0.255901
     3  O   -0.215710   0.255731
     4  O   -0.277539   0.237188
 Sum of Mulliken charges =  -1.00000   1.00000

 Dipole moment (field-independent basis, Debye):
    X=              0.0444    Y=             -0.0028    Z=              0.0000  Tot=              0.0444
 Quadrupole moment (field-independent basis, Debye-Ang):
   XX=            -23.5477   YY=            -48.7330   ZZ=            -23.1899
   XY=             -3.3185   XZ=              0.0000   YZ=              0.0000

 246\CCSD(T)=-300.149464\RMSD=4.039e-09\PG=CS [SG(O4)]\\@
 Normal termination of Gaussian 16 at Sun Feb 18 03:05:45 2024.
