 Gaussian 16, Revision A.03,
 Gaussian 16:  ES64L-G16RevA.03 25-Dec-2016

 -----------------------------------------------
 #p ROCCSD(T,MaxCyc=200)/cc-pVTZ SCF(MaxCyc=200)
 -----------------------------------------------

 --------
 O2_O2_38
 --------
 Symbolic Z-matrix:
 Charge = -1 Multiplicity = 2

                         Standard orientation:
 ---------------------------------------------------------------------
 Center     Atomic      Atomic             Coordinates (Angstroms)
 Number     Number       Type             X           Y           Z
 ---------------------------------------------------------------------
      1          8           0       -0.870000   -1.030000    0.000000
      2          8           0        0.290000   -1.030000    0.000000
      3          8           0        0.290000    0.450000    0.000000
      4          8           0        0.290000    1.610000    0.000000
 ---------------------------------------------------------------------

 SCF Done:  E(ROHF) =  -299.036161975     A.U. after   26 cycles
 E2 =    -0.9573210853D+00 EUMP2 =    -0.29999348305991D+03
 CCSD(T)
 CCSD(T)= -0.30003754431D+03

 The electronic state is 2-A".
 Alpha  occ. eigenvalues --  -20.47891 -20.33796 -20.33552 -20.33019  -1.44795
 Alpha  occ. eigenvalues --   -1.34860  -0.90190  -0.75773  -0.54093  -0.51817
 Alpha  occ. eigenvalues --   -0.47494  -0.45287  -0.42439  -0.21575  -0.17071
 Alpha  occ. eigenvalues --   -0.12017  -0.09515
 Alpha virt. eigenvalues --    0.36294   0.66927   0.73630   0.87535   0.93670
 Alpha virt. eigenvalues --    0.95949   0.99524   1.00811   1.05624   1.06971
 Alpha virt. eigenvalues --    1.11646   1.14486   1.15152   1.17105   1.28240

 Mulliken charges and spin densities:
               1          2
     1  O   -0.378942   0.001157
     2  O    0.024354   0.009546
     3  O   -0.242739   0.428216
     4  O   -0.402673   0.561081
 Sum of Mulliken charges =  -1.00000   1.00000

 Dipole moment (field-independent basis, Debye):
    X=              0.9331    Y=             -1.3650    Z=              0.0000  Tot=              1.6535
 Quadrupole moment (field-independent basis, Debye-Ang):
   XX=            -24.8522   YY=            -31.3467   ZZ=            -21.9988
   XY=             -3.0584   XZ=              0.0000   YZ=              0.0000

 Normal termination of Gaussian 16 at Sat Feb 17 21:14:18 2024.
