 Gaussian 16, Revision A.03,
 Gaussian 16:  ES64L-G16RevA.03 25-Dec-2016

 -----------------------------------------------
 #p ROCCSD(T,MaxCyc=200)/cc-pVTZ SCF(MaxCyc=200)
 -----------------------------------------------

 --------
 O2_O2_63
 --------
 Symbolic Z-matrix:
 Charge = -1 Multiplicity = 2

                         Standard orientation:
 ---------------------------------------------------------------------
 Center     Atomic      Atomic             Coordinates (Angstroms)
 Number     Number       Type             X           Y           Z
 ---------------------------------------------------------------------
      1          8           0        0.000000    0.000000    2.080000
      2          8           0        0.000000    0.000000    0.920000
      3          8           0        0.000000    0.000000   -0.920000
      4          8           0        0.000000    0.000000   -2.080000
 ---------------------------------------------------------------------

 SCF Done:  E(ROHF) =  -299.050583942     A.U. after   13 cycles
 E2 =    -0.1198675558D+01 EUMP2 =    -0.30024925949939D+03
 CCSD(T)
 CCSD(T)= -0.30018030619D+03

 Unable to determine electronic state:  an orbital has unidentified symmetry.
 Alpha  occ. eigenvalues --  -20.45778 -20.45776 -20.39092 -20.39092  -1.42719
 Alpha  occ. eigenvalues --   -1.41446  -0.88490  -0.77871  -0.53194  -0.52456
 Alpha  occ. eigenvalues --   -0.50814  -0.46007  -0.42229  -0.38781  -0.19522
 Alpha  occ. eigenvalues --   -0.15404  -0.02986
 Alpha virt. eigenvalues --    0.22541   0.70709   0.71801   0.90847   0.92754
 Alpha virt. eigenvalues --    0.96791   0.97970   0.99903   1.03132   1.05516
 Alpha virt. eigenvalues --    1.05785   1.12358   1.12603   1.21011   1.22683

 Mulliken charges and spin densities:
               1          2
     1  O   -0.393160   0.191538
     2  O   -0.106840   0.308462
     3  O   -0.106840   0.308462
     4  O   -0.393160   0.191538
 Sum of Mulliken charges =  -1.00000   1.00000

 Dipole moment (field-independent basis, Debye):
    X=             -0.0000    Y=              0.0000    Z=             -0.0000  Tot=              0.0000
 Quadrupole moment (field-independent basis, Debye-Ang):
   XX=            -21.9728   YY=            -22.5288   ZZ=            -40.8947
   XY=              0.0000   XZ=              0.0000   YZ=              0.0000

 \PMP2-0=-300.2492595\MP4SDQ=-300.0467588\CCSD=-300.0961021\CCSD(T)=-30
 Normal termination of Gaussian 16 at Sat Feb 17 22:04:33 2024.
