 Gaussian 16, Revision A.03,
 Gaussian 16:  ES64L-G16RevA.03 25-Dec-2016

 -----------------------------------------------
 #p ROCCSD(T,MaxCyc=200)/cc-pVTZ SCF(MaxCyc=200)
 -----------------------------------------------

 ---------
 O2_O2_172
 ---------
 Symbolic Z-matrix:
 Charge = -1 Multiplicity = 2

                         Standard orientation:
 ---------------------------------------------------------------------
 Center     Atomic      Atomic             Coordinates (Angstroms)
 Number     Number       Type             X           Y           Z
 ---------------------------------------------------------------------
      1          8           0        0.615183   -2.545183    0.000000
      2          8           0       -0.205061   -1.724939    0.000000
      3          8           0       -0.205061    1.555061    0.000000
      4          8           0       -0.205061    2.715061    0.000000
 ---------------------------------------------------------------------

 SCF Done:  E(ROHF) =  -299.190857099     A.U. after   31 cycles
 E2 =    -0.9204855731D+00 EUMP2 =    -0.30011134267226D+03
 CCSD(T)
 CCSD(T)= -0.30014808184D+03

 The electronic state is 2-A".
 Alpha  occ. eigenvalues --  -20.60203 -20.59725 -20.24891 -20.24812  -1.57035
 Alpha  occ. eigenvalues --   -1.27938  -0.95638  -0.71015  -0.65782  -0.62180
 Alpha  occ. eigenvalues --   -0.54634  -0.39404  -0.35858  -0.33932  -0.31821
 Alpha  occ. eigenvalues --   -0.06076  -0.02036
 Alpha virt. eigenvalues --    0.17788   0.55875   0.71571   0.82972   0.83469
 Alpha virt. eigenvalues --    0.86806   0.92774   0.94201   0.96854   1.00136
 Alpha virt. eigenvalues --    1.02977   1.05028   1.13820   1.15248   1.15892

 Mulliken charges and spin densities:
               1          2
     1  O   -0.053330   0.000142
     2  O    0.050869   0.000224
     3  O   -0.501563   0.497858
     4  O   -0.495976   0.501776
 Sum of Mulliken charges =  -1.00000   1.00000

 Dipole moment (field-independent basis, Debye):
    X=              0.7855    Y=             -9.8460    Z=             -0.0000  Tot=              9.8773
 Quadrupole moment (field-independent basis, Debye-Ang):
   XX=            -23.4649   YY=            -48.9903   ZZ=            -20.6047
   XY=              2.4976   XZ=             -0.0000   YZ=              0.0000

 241\CCSD=-300.1122414\CCSD(T)=-300.1480818\RMSD=2.353e-09\PG=CS [SG(O4
 Normal termination of Gaussian 16 at Sun Feb 18 01:36:00 2024.
