 Gaussian 16, Revision A.03,
 Gaussian 16:  ES64L-G16RevA.03 25-Dec-2016

 -----------------------------------------------
 #p ROCCSD(T,MaxCyc=200)/cc-pVTZ SCF(MaxCyc=200)
 -----------------------------------------------

 ---------
 O2_O2_115
 ---------
 Symbolic Z-matrix:
 Charge = -1 Multiplicity = 2

                         Standard orientation:
 ---------------------------------------------------------------------
 Center     Atomic      Atomic             Coordinates (Angstroms)
 Number     Number       Type             X           Y           Z
 ---------------------------------------------------------------------
      1          8           0        0.615183   -2.165183   -0.000000
      2          8           0       -0.205061   -1.344939   -0.000000
      3          8           0       -0.205061    1.175061    0.000000
      4          8           0       -0.205061    2.335061    0.000000
 ---------------------------------------------------------------------

 SCF Done:  E(ROHF) =  -299.166681769     A.U. after   23 cycles
 E2 =    -0.9573163107D+00 EUMP2 =    -0.30012399807941D+03
 CCSD(T)
 CCSD(T)= -0.30015174462D+03

 The electronic state is 2-A".
 Alpha  occ. eigenvalues --  -20.41995 -20.41640 -20.41095 -20.40448  -1.41504
 Alpha  occ. eigenvalues --   -1.41069  -0.83073  -0.81040  -0.50219  -0.49437
 Alpha  occ. eigenvalues --   -0.48072  -0.46106  -0.45019  -0.44934  -0.16069
 Alpha  occ. eigenvalues --   -0.15320  -0.00916
 Alpha virt. eigenvalues --    0.16483   0.66513   0.71460   0.91177   0.91184
 Alpha virt. eigenvalues --    0.93636   0.95678   0.97177   1.01419   1.02715
 Alpha virt. eigenvalues --    1.06411   1.08134   1.11791   1.13093   1.14795

 Mulliken charges and spin densities:
               1          2
     1  O   -0.293732   0.236311
     2  O   -0.199207   0.256707
     3  O   -0.193066   0.267756
     4  O   -0.313995   0.239226
 Sum of Mulliken charges =  -1.00000   1.00000

 Dipole moment (field-independent basis, Debye):
    X=             -0.1518    Y=             -0.2293    Z=             -0.0000  Tot=              0.2750
 Quadrupole moment (field-independent basis, Debye-Ang):
   XX=            -24.0800   YY=            -42.2322   ZZ=            -20.7603
   XY=              2.7829   XZ=             -0.0000   YZ=             -0.0000

 35542\CCSD=-300.1103218\CCSD(T)=-300.1517446\RMSD=5.787e-09\PG=CS [SG(
 Normal termination of Gaussian 16 at Sat Feb 17 23:52:33 2024.
