 Gaussian 16, Revision A.03,
 Gaussian 16:  ES64L-G16RevA.03 25-Dec-2016

 -----------------------------------------------
 #p ROCCSD(T,MaxCyc=200)/cc-pVTZ SCF(MaxCyc=200)
 -----------------------------------------------

 -------
 O2_O2_3
 -------
 Symbolic Z-matrix:
 Charge = -1 Multiplicity = 2

                         Standard orientation:
 ---------------------------------------------------------------------
 Center     Atomic      Atomic             Coordinates (Angstroms)
 Number     Number       Type             X           Y           Z
 ---------------------------------------------------------------------
      1          8           0        0.000000    0.000000    1.680000
      2          8           0        0.000000    0.000000    0.520000
      3          8           0        0.000000    0.000000   -0.520000
      4          8           0        0.000000    0.000000   -1.680000
 ---------------------------------------------------------------------

 SCF Done:  E(ROHF) =  -298.637399771     A.U. after   11 cycles
 E2 =    -0.9124325702D+00 EUMP2 =    -0.29954983234086D+03
 CCSD(T)
 CCSD(T)= -0.29958990035D+03

 Unable to determine electronic state:  an orbital has unidentified symmetry.
 Alpha  occ. eigenvalues --  -20.42662 -20.42534 -20.30230 -20.30230  -1.62439
 Alpha  occ. eigenvalues --   -1.33640  -1.17157  -0.69809  -0.66789  -0.61640
 Alpha  occ. eigenvalues --   -0.52419  -0.42154  -0.40190  -0.21335  -0.20206
 Alpha  occ. eigenvalues --   -0.01775   0.00646
 Alpha virt. eigenvalues --    0.49781   0.71721   0.77507   0.84360   0.89307
 Alpha virt. eigenvalues --    0.90636   0.93942   1.01604   1.02290   1.10633
 Alpha virt. eigenvalues --    1.11451   1.15751   1.25688   1.27137   1.43086

 Mulliken charges and spin densities:
               1          2
     1  O   -0.551801   0.113859
     2  O    0.051801   0.386141
     3  O    0.051801   0.386141
     4  O   -0.551801   0.113859
 Sum of Mulliken charges =  -1.00000   1.00000

 Dipole moment (field-independent basis, Debye):
    X=             -0.0000    Y=              0.0000    Z=              0.0000  Tot=              0.0000
 Quadrupole moment (field-independent basis, Debye-Ang):
   XX=            -21.9130   YY=            -21.2473   ZZ=            -41.2619
   XY=              0.0000   XZ=              0.0000   YZ=              0.0000

 8\PMP2-0=-299.5498323\MP4SDQ=-299.5565394\CCSD=-299.5558446\CCSD(T)=-2
 Normal termination of Gaussian 16 at Sat Feb 17 20:15:34 2024.
