 Gaussian 16, Revision A.03,
 Gaussian 16:  ES64L-G16RevA.03 25-Dec-2016

 -----------------------------------------------
 #p ROCCSD(T,MaxCyc=200)/cc-pVTZ SCF(MaxCyc=200)
 -----------------------------------------------

 ---------
 O2_O2_284
 ---------
 Symbolic Z-matrix:
 Charge = -1 Multiplicity = 2

                         Standard orientation:
 ---------------------------------------------------------------------
 Center     Atomic      Atomic             Coordinates (Angstroms)
 Number     Number       Type             X           Y           Z
 ---------------------------------------------------------------------
      1          8           0       -0.870000   -2.670000    0.000000
      2          8           0        0.290000   -2.670000    0.000000
      3          8           0        0.290000    2.090000    0.000000
      4          8           0        0.290000    3.250000    0.000000
 ---------------------------------------------------------------------

 SCF Done:  E(ROHF) =  -299.164686650     A.U. after   16 cycles
 E2 =    -0.9594043891D+00 EUMP2 =    -0.30012409103951D+03
 CCSD(T)
 CCSD(T)= -0.30014822029D+03

 The electronic state is 2-A'.
 Alpha  occ. eigenvalues --  -20.44461 -20.44047 -20.43861 -20.43751  -1.44159
 Alpha  occ. eigenvalues --   -1.43720  -0.84956  -0.84635  -0.52539  -0.52111
 Alpha  occ. eigenvalues --   -0.49738  -0.49423  -0.48401  -0.48062  -0.18668
 Alpha  occ. eigenvalues --   -0.18274  -0.00178
 Alpha virt. eigenvalues --    0.09846   0.63744   0.63938   0.91439   0.91725
 Alpha virt. eigenvalues --    0.92226   0.92593   0.93631   0.93844   1.03544
 Alpha virt. eigenvalues --    1.03772   1.03875   1.04241   1.04844   1.05111

 Mulliken charges and spin densities:
               1          2
     1  O   -0.255736   0.251372
     2  O   -0.249204   0.253580
     3  O   -0.224432   0.254645
     4  O   -0.270628   0.240402
 Sum of Mulliken charges =  -1.00000   1.00000

 Dipole moment (field-independent basis, Debye):
    X=              0.0294    Y=              0.0153    Z=              0.0000  Tot=              0.0331
 Quadrupole moment (field-independent basis, Debye-Ang):
   XX=            -23.5135   YY=            -58.5232   ZZ=            -23.1856
   XY=             -3.8563   XZ=              0.0000   YZ=              0.0000

 \CCSD(T)=-300.1482203\RMSD=4.450e-09\PG=CS [SG(O4)]\\@
 Normal termination of Gaussian 16 at Sun Feb 18 05:35:30 2024.
