 Gaussian 16, Revision A.03,
 Gaussian 16:  ES64L-G16RevA.03 25-Dec-2016

 -----------------------------------------------
 #p ROCCSD(T,MaxCyc=200)/cc-pVTZ SCF(MaxCyc=200)
 -----------------------------------------------

 ---------
 O2_O2_204
 ---------
 Symbolic Z-matrix:
 Charge = -1 Multiplicity = 2

                         Standard orientation:
 ---------------------------------------------------------------------
 Center     Atomic      Atomic             Coordinates (Angstroms)
 Number     Number       Type             X           Y           Z
 ---------------------------------------------------------------------
      1          8           0        0.000000    0.000000    3.020000
      2          8           0        0.000000    0.000000    1.860000
      3          8           0        0.000000    0.000000   -1.860000
      4          8           0        0.000000    0.000000   -3.020000
 ---------------------------------------------------------------------

 SCF Done:  E(ROHF) =  -299.164628719     A.U. after   12 cycles
 E2 =    -0.9589948921D+00 EUMP2 =    -0.30012362361092D+03
 CCSD(T)
 CCSD(T)= -0.30014805566D+03

 Unable to determine electronic state:  an orbital has unidentified symmetry.
 Alpha  occ. eigenvalues --  -20.43636 -20.43636 -20.43085 -20.43085  -1.43308
 Alpha  occ. eigenvalues --   -1.43296  -0.84170  -0.83988  -0.51689  -0.51665
 Alpha  occ. eigenvalues --   -0.48986  -0.48663  -0.47784  -0.47418  -0.17845
 Alpha  occ. eigenvalues --   -0.17736  -0.00182
 Alpha virt. eigenvalues --    0.11247   0.59055   0.69804   0.89541   0.91895
 Alpha virt. eigenvalues --    0.92501   0.92695   0.93295   0.99420   1.03283
 Alpha virt. eigenvalues --    1.03693   1.04295   1.05603   1.05943   1.10910

 Mulliken charges and spin densities:
               1          2
     1  O   -0.279593   0.240728
     2  O   -0.220407   0.259272
     3  O   -0.220407   0.259272
     4  O   -0.279593   0.240728
 Sum of Mulliken charges =  -1.00000   1.00000

 Dipole moment (field-independent basis, Debye):
    X=             -0.0000    Y=              0.0000    Z=              0.0000  Tot=              0.0000
 Quadrupole moment (field-independent basis, Debye-Ang):
   XX=            -23.1890   YY=            -20.6845   ZZ=            -56.2799
   XY=              0.0000   XZ=              0.0000   YZ=              0.0000

 Normal termination of Gaussian 16 at Sun Feb 18 02:31:10 2024.
