 Gaussian 16, Revision A.03,
 Gaussian 16:  ES64L-G16RevA.03 25-Dec-2016

 -----------------------------------------------
 #p ROCCSD(T,MaxCyc=200)/cc-pVTZ SCF(MaxCyc=200)
 -----------------------------------------------

 ---------
 O2_O2_161
 ---------
 Symbolic Z-matrix:
 Charge = -1 Multiplicity = 2

                         Standard orientation:
 ---------------------------------------------------------------------
 Center     Atomic      Atomic             Coordinates (Angstroms)
 Number     Number       Type             X           Y           Z
 ---------------------------------------------------------------------
      1          8           0       -0.870000   -1.850000    0.000000
      2          8           0        0.290000   -1.850000    0.000000
      3          8           0        0.290000    1.270000    0.000000
      4          8           0        0.290000    2.430000    0.000000
 ---------------------------------------------------------------------

 SCF Done:  E(ROHF) =  -299.170818749     A.U. after   19 cycles
 E2 =    -0.9575165065D+00 EUMP2 =    -0.30012833525566D+03
 CCSD(T)
 CCSD(T)= -0.30015500069D+03

 The electronic state is 2-A'.
 Alpha  occ. eigenvalues --  -20.43223 -20.42219 -20.41822 -20.41701  -1.42561
 Alpha  occ. eigenvalues --   -1.41594  -0.83243  -0.82568  -0.50956  -0.50018
 Alpha  occ. eigenvalues --   -0.48319  -0.47391  -0.46613  -0.45591  -0.17051
 Alpha  occ. eigenvalues --   -0.16205  -0.00857
 Alpha virt. eigenvalues --    0.14677   0.64121   0.66522   0.87231   0.92242
 Alpha virt. eigenvalues --    0.92356   0.95401   0.95610   1.00222   1.04050
 Alpha virt. eigenvalues --    1.04756   1.05454   1.06975   1.07220   1.12770

 Mulliken charges and spin densities:
               1          2
     1  O   -0.267952   0.249170
     2  O   -0.243193   0.262823
     3  O   -0.202663   0.256104
     4  O   -0.286191   0.231902
 Sum of Mulliken charges =  -1.00000   1.00000

 Dipole moment (field-independent basis, Debye):
    X=              0.0836    Y=             -0.0031    Z=              0.0000  Tot=              0.0837
 Quadrupole moment (field-independent basis, Debye-Ang):
   XX=            -23.6245   YY=            -40.9845   ZZ=            -23.1967
   XY=             -2.8125   XZ=              0.0000   YZ=              0.0000

 632\CCSD(T)=-300.1550007\RMSD=4.034e-09\PG=CS [SG(O4)]\\@
 Normal termination of Gaussian 16 at Sun Feb 18 01:16:12 2024.
