 Gaussian 16, Revision A.03,
 Gaussian 16:  ES64L-G16RevA.03 25-Dec-2016

 -----------------------------------------------
 #p ROCCSD(T,MaxCyc=200)/cc-pVTZ SCF(MaxCyc=200)
 -----------------------------------------------

 --------
 O2_O2_83
 --------
 Symbolic Z-matrix:
 Charge = -1 Multiplicity = 2

                         Standard orientation:
 ---------------------------------------------------------------------
 Center     Atomic      Atomic             Coordinates (Angstroms)
 Number     Number       Type             X           Y           Z
 ---------------------------------------------------------------------
      1          8           0       -0.870000   -1.330000    0.000000
      2          8           0        0.290000   -1.330000    0.000000
      3          8           0        0.290000    0.750000    0.000000
      4          8           0        0.290000    1.910000    0.000000
 ---------------------------------------------------------------------

 SCF Done:  E(ROHF) =  -299.186422418     A.U. after   22 cycles
 E2 =    -0.9445475310D+00 EUMP2 =    -0.30013096994888D+03
 CCSD(T)
 CCSD(T)= -0.30018622508D+03

 The electronic state is 2-A".
 Alpha  occ. eigenvalues --  -20.50357 -20.49286 -20.29438 -20.29357  -1.47258
 Alpha  occ. eigenvalues --   -1.32196  -0.86753  -0.75800  -0.56351  -0.53136
 Alpha  occ. eigenvalues --   -0.47277  -0.43534  -0.39286  -0.34973  -0.22510
 Alpha  occ. eigenvalues --   -0.10255  -0.04939
 Alpha virt. eigenvalues --    0.26886   0.62715   0.75874   0.89295   0.91061
 Alpha virt. eigenvalues --    0.92410   0.98292   1.00759   1.00800   1.02419
 Alpha virt. eigenvalues --    1.06448   1.08685   1.14044   1.19801   1.21163

 Mulliken charges and spin densities:
               1          2
     1  O   -0.104318   0.000302
     2  O   -0.032959   0.000752
     3  O   -0.417275   0.462477
     4  O   -0.445448   0.536468
 Sum of Mulliken charges =  -1.00000   1.00000

 Dipole moment (field-independent basis, Debye):
    X=             -0.7359    Y=             -4.3497    Z=              0.0000  Tot=              4.4115
 Quadrupole moment (field-independent basis, Debye-Ang):
   XX=            -24.0074   YY=            -33.6148   ZZ=            -22.2364
   XY=             -2.2265   XZ=              0.0000   YZ=              0.0000

 18\CCSD(T)=-300.1862251\RMSD=3.076e-09\PG=CS [SG(O4)]\\@
 Normal termination of Gaussian 16 at Sat Feb 17 22:44:55 2024.
