 Gaussian 16, Revision A.03,
 Gaussian 16:  ES64L-G16RevA.03 25-Dec-2016

 -----------------------------------------------
 #p ROCCSD(T,MaxCyc=200)/cc-pVTZ SCF(MaxCyc=200)
 -----------------------------------------------

 ---------
 O2_O2_169
 ---------
 Symbolic Z-matrix:
 Charge = -1 Multiplicity = 2

                         Standard orientation:
 ---------------------------------------------------------------------
 Center     Atomic      Atomic             Coordinates (Angstroms)
 Number     Number       Type             X           Y           Z
 ---------------------------------------------------------------------
      1          8           0        0.615183   -2.525183    0.000000
      2          8           0       -0.205061   -1.704939    0.000000
      3          8           0       -0.205061    1.535061   -0.000000
      4          8           0       -0.205061    2.695061   -0.000000
 ---------------------------------------------------------------------

 SCF Done:  E(ROHF) =  -299.190845345     A.U. after   32 cycles
 E2 =    -0.9205205343D+00 EUMP2 =    -0.30011136587894D+03
 CCSD(T)
 CCSD(T)= -0.30014814764D+03

 The electronic state is 2-A".
 Alpha  occ. eigenvalues --  -20.60067 -20.59583 -20.24904 -20.24825  -1.56899
 Alpha  occ. eigenvalues --   -1.27950  -0.95501  -0.71028  -0.65646  -0.62040
 Alpha  occ. eigenvalues --   -0.54502  -0.39415  -0.35870  -0.33947  -0.31678
 Alpha  occ. eigenvalues --   -0.06086  -0.02047
 Alpha virt. eigenvalues --    0.17922   0.56056   0.71689   0.83083   0.83588
 Alpha virt. eigenvalues --    0.86937   0.92894   0.94279   0.96894   1.00205
 Alpha virt. eigenvalues --    1.03022   1.05048   1.13891   1.15643   1.15943

 Mulliken charges and spin densities:
               1          2
     1  O   -0.054497   0.000166
     2  O    0.051691   0.000261
     3  O   -0.501511   0.497628
     4  O   -0.495683   0.501945
 Sum of Mulliken charges =  -1.00000   1.00000

 Dipole moment (field-independent basis, Debye):
    X=              0.7814    Y=             -9.7381    Z=              0.0000  Tot=              9.7694
 Quadrupole moment (field-independent basis, Debye-Ang):
   XX=            -23.4682   YY=            -48.5987   ZZ=            -20.6053
   XY=              2.4841   XZ=             -0.0000   YZ=              0.0000

 455\CCSD=-300.1122796\CCSD(T)=-300.1481476\RMSD=6.753e-10\PG=CS [SG(O4
 Normal termination of Gaussian 16 at Sun Feb 18 01:30:21 2024.
