 Gaussian 16, Revision A.03,
 Gaussian 16:  ES64L-G16RevA.03 25-Dec-2016

 -----------------------------------------------
 #p ROCCSD(T,MaxCyc=200)/cc-pVTZ SCF(MaxCyc=200)
 -----------------------------------------------

 ---------
 O2_O2_170
 ---------
 Symbolic Z-matrix:
 Charge = -1 Multiplicity = 2

                         Standard orientation:
 ---------------------------------------------------------------------
 Center     Atomic      Atomic             Coordinates (Angstroms)
 Number     Number       Type             X           Y           Z
 ---------------------------------------------------------------------
      1          8           0       -0.870000   -1.910000    0.000000
      2          8           0        0.290000   -1.910000    0.000000
      3          8           0        0.290000    1.330000    0.000000
      4          8           0        0.290000    2.490000    0.000000
 ---------------------------------------------------------------------

 SCF Done:  E(ROHF) =  -299.169864026     A.U. after   15 cycles
 E2 =    -0.9576609067D+00 EUMP2 =    -0.30012752493225D+03
 CCSD(T)
 CCSD(T)= -0.30015385402D+03

 The electronic state is 2-A'.
 Alpha  occ. eigenvalues --  -20.43301 -20.42380 -20.42039 -20.41916  -1.42691
 Alpha  occ. eigenvalues --   -1.41819  -0.83384  -0.82785  -0.51083  -0.50240
 Alpha  occ. eigenvalues --   -0.48373  -0.47602  -0.46777  -0.45907  -0.17183
 Alpha  occ. eigenvalues --   -0.16424  -0.00738
 Alpha virt. eigenvalues --    0.14141   0.63819   0.66150   0.87150   0.92302
 Alpha virt. eigenvalues --    0.92545   0.95076   0.95406   1.00197   1.03711
 Alpha virt. eigenvalues --    1.04640   1.05823   1.06683   1.06759   1.12204

 Mulliken charges and spin densities:
               1          2
     1  O   -0.265979   0.249643
     2  O   -0.243852   0.261061
     3  O   -0.205522   0.256282
     4  O   -0.284647   0.233014
 Sum of Mulliken charges =  -1.00000   1.00000

 Dipole moment (field-independent basis, Debye):
    X=              0.0738    Y=             -0.0109    Z=              0.0000  Tot=              0.0746
 Quadrupole moment (field-independent basis, Debye-Ang):
   XX=            -23.6087   YY=            -42.0413   ZZ=            -23.1954
   XY=             -2.8886   XZ=              0.0000   YZ=              0.0000

 \CCSD(T)=-300.153854\RMSD=5.320e-09\PG=CS [SG(O4)]\\@
 Normal termination of Gaussian 16 at Sun Feb 18 01:32:07 2024.
