 Gaussian 16, Revision A.03,
 Gaussian 16:  ES64L-G16RevA.03 25-Dec-2016

 -----------------------------------------------
 #p ROCCSD(T,MaxCyc=200)/cc-pVTZ SCF(MaxCyc=200)
 -----------------------------------------------

 ---------
 O2_O2_167
 ---------
 Symbolic Z-matrix:
 Charge = -1 Multiplicity = 2

                         Standard orientation:
 ---------------------------------------------------------------------
 Center     Atomic      Atomic             Coordinates (Angstroms)
 Number     Number       Type             X           Y           Z
 ---------------------------------------------------------------------
      1          8           0       -0.870000   -1.890000    0.000000
      2          8           0        0.290000   -1.890000    0.000000
      3          8           0        0.290000    1.310000    0.000000
      4          8           0        0.290000    2.470000    0.000000
 ---------------------------------------------------------------------

 SCF Done:  E(ROHF) =  -299.170172702     A.U. after   17 cycles
 E2 =    -0.9576119671D+00 EUMP2 =    -0.30012778466874D+03
 CCSD(T)
 CCSD(T)= -0.30015422414D+03

 The electronic state is 2-A'.
 Alpha  occ. eigenvalues --  -20.43275 -20.42327 -20.41969 -20.41846  -1.42648
 Alpha  occ. eigenvalues --   -1.41746  -0.83337  -0.82715  -0.51040  -0.50168
 Alpha  occ. eigenvalues --   -0.48352  -0.47533  -0.46723  -0.45807  -0.17139
 Alpha  occ. eigenvalues --   -0.16353  -0.00775
 Alpha virt. eigenvalues --    0.14315   0.63908   0.66265   0.87152   0.92283
 Alpha virt. eigenvalues --    0.92487   0.95183   0.95473   1.00209   1.03830
 Alpha virt. eigenvalues --    1.04676   1.05705   1.06827   1.06854   1.12542

 Mulliken charges and spin densities:
               1          2
     1  O   -0.266601   0.249494
     2  O   -0.243629   0.261607
     3  O   -0.204632   0.256239
     4  O   -0.285138   0.232660
 Sum of Mulliken charges =  -1.00000   1.00000

 Dipole moment (field-independent basis, Debye):
    X=              0.0768    Y=             -0.0087    Z=              0.0000  Tot=              0.0773
 Quadrupole moment (field-independent basis, Debye-Ang):
   XX=            -23.6138   YY=            -41.6847   ZZ=            -23.1958
   XY=             -2.8633   XZ=              0.0000   YZ=              0.0000

 15\CCSD(T)=-300.1542241\RMSD=2.843e-09\PG=CS [SG(O4)]\\@
 Normal termination of Gaussian 16 at Sun Feb 18 01:26:33 2024.
