 Gaussian 16, Revision A.03,
 Gaussian 16:  ES64L-G16RevA.03 25-Dec-2016

 -----------------------------------------------
 #p ROCCSD(T,MaxCyc=200)/cc-pVTZ SCF(MaxCyc=200)
 -----------------------------------------------

 --------
 O2_O2_75
 --------
 Symbolic Z-matrix:
 Charge = -1 Multiplicity = 2

                         Standard orientation:
 ---------------------------------------------------------------------
 Center     Atomic      Atomic             Coordinates (Angstroms)
 Number     Number       Type             X           Y           Z
 ---------------------------------------------------------------------
      1          8           0        0.000000    0.000000    2.160000
      2          8           0        0.000000    0.000000    1.000000
      3          8           0        0.000000    0.000000   -1.000000
      4          8           0        0.000000    0.000000   -2.160000
 ---------------------------------------------------------------------

 SCF Done:  E(ROHF) =  -299.050346091     A.U. after   13 cycles
 E2 =    -0.1234475021D+01 EUMP2 =    -0.30028482111249D+03
 CCSD(T)
 CCSD(T)= -0.30019223619D+03

 Unable to determine electronic state:  an orbital has unidentified symmetry.
 Alpha  occ. eigenvalues --  -20.45841 -20.45839 -20.40139 -20.40138  -1.42776
 Alpha  occ. eigenvalues --   -1.41987  -0.86662  -0.79436  -0.53035  -0.51600
 Alpha  occ. eigenvalues --   -0.51474  -0.45836  -0.43017  -0.41605  -0.19393
 Alpha  occ. eigenvalues --   -0.16375  -0.02132
 Alpha virt. eigenvalues --    0.20782   0.70033   0.71724   0.90297   0.92167
 Alpha virt. eigenvalues --    0.96177   0.97376   0.99159   1.01956   1.04540
 Alpha virt. eigenvalues --    1.05627   1.11387   1.12824   1.19023   1.19547

 Mulliken charges and spin densities:
               1          2
     1  O   -0.374529   0.199039
     2  O   -0.125471   0.300961
     3  O   -0.125471   0.300961
     4  O   -0.374529   0.199039
 Sum of Mulliken charges =  -1.00000   1.00000

 Dipole moment (field-independent basis, Debye):
    X=             -0.0000    Y=              0.0000    Z=              0.0000  Tot=              0.0000
 Quadrupole moment (field-independent basis, Debye-Ang):
   XX=            -22.5480   YY=            -21.9844   ZZ=            -41.5215
   XY=              0.0000   XZ=              0.0000   YZ=              0.0000

 1\PMP2-0=-300.2848211\MP4SDQ=-300.016194\CCSD=-300.1029448\CCSD(T)=-30
 Normal termination of Gaussian 16 at Sat Feb 17 22:28:14 2024.
