 Gaussian 16, Revision A.03,
 Gaussian 16:  ES64L-G16RevA.03 25-Dec-2016

 -----------------------------------------------
 #p ROCCSD(T,MaxCyc=200)/cc-pVTZ SCF(MaxCyc=200)
 -----------------------------------------------

 ---------
 O2_O2_233
 ---------
 Symbolic Z-matrix:
 Charge = -1 Multiplicity = 2

                         Standard orientation:
 ---------------------------------------------------------------------
 Center     Atomic      Atomic             Coordinates (Angstroms)
 Number     Number       Type             X           Y           Z
 ---------------------------------------------------------------------
      1          8           0       -0.870000   -2.330000    0.000000
      2          8           0        0.290000   -2.330000    0.000000
      3          8           0        0.290000    1.750000    0.000000
      4          8           0        0.290000    2.910000    0.000000
 ---------------------------------------------------------------------

 SCF Done:  E(ROHF) =  -299.165756445     A.U. after   14 cycles
 E2 =    -0.9586957274D+00 EUMP2 =    -0.30012445217279D+03
 CCSD(T)
 CCSD(T)= -0.30014898473D+03

 The electronic state is 2-A'.
 Alpha  occ. eigenvalues --  -20.43955 -20.43401 -20.43164 -20.43045  -1.43573
 Alpha  occ. eigenvalues --   -1.43004  -0.84338  -0.83937  -0.51955  -0.51405
 Alpha  occ. eigenvalues --   -0.49130  -0.48732  -0.47780  -0.47325  -0.18075
 Alpha  occ. eigenvalues --   -0.17573  -0.00294
 Alpha virt. eigenvalues --    0.11340   0.63926   0.64709   0.90263   0.92020
 Alpha virt. eigenvalues --    0.92730   0.93343   0.94293   0.96572   1.03686
 Alpha virt. eigenvalues --    1.04093   1.04528   1.05216   1.05603   1.06885

 Mulliken charges and spin densities:
               1          2
     1  O   -0.258409   0.251325
     2  O   -0.248022   0.255314
     3  O   -0.217552   0.255489
     4  O   -0.276018   0.237873
 Sum of Mulliken charges =  -1.00000   1.00000

 Dipole moment (field-independent basis, Debye):
    X=              0.0409    Y=              0.0033    Z=              0.0000  Tot=              0.0410
 Quadrupole moment (field-independent basis, Debye-Ang):
   XX=            -23.5388   YY=            -50.4702   ZZ=            -23.1889
   XY=             -3.4200   XZ=              0.0000   YZ=              0.0000

 057\CCSD(T)=-300.1489847\RMSD=7.623e-09\PG=CS [SG(O4)]\\@
 Normal termination of Gaussian 16 at Sun Feb 18 03:29:38 2024.
