 Gaussian 16, Revision A.03,
 Gaussian 16:  ES64L-G16RevA.03 25-Dec-2016

 -----------------------------------------------
 #p ROCCSD(T,MaxCyc=200)/cc-pVTZ SCF(MaxCyc=200)
 -----------------------------------------------

 ---------
 O2_O2_120
 ---------
 Symbolic Z-matrix:
 Charge = -1 Multiplicity = 2

                         Standard orientation:
 ---------------------------------------------------------------------
 Center     Atomic      Atomic             Coordinates (Angstroms)
 Number     Number       Type             X           Y           Z
 ---------------------------------------------------------------------
      1          8           0        0.000000    0.000000    2.460000
      2          8           0        0.000000    0.000000    1.300000
      3          8           0        0.000000    0.000000   -1.300000
      4          8           0        0.000000    0.000000   -2.460000
 ---------------------------------------------------------------------

 SCF Done:  E(ROHF) =  -299.169280226     A.U. after   12 cycles
 E2 =    -0.9575210883D+00 EUMP2 =    -0.30012680131448D+03
 CCSD(T)
 CCSD(T)= -0.30015381908D+03

 Unable to determine electronic state:  an orbital has unidentified symmetry.
 Alpha  occ. eigenvalues --  -20.42355 -20.42354 -20.41228 -20.41228  -1.41823
 Alpha  occ. eigenvalues --   -1.41677  -0.83358  -0.81554  -0.50302  -0.49948
 Alpha  occ. eigenvalues --   -0.48686  -0.46505  -0.45521  -0.45413  -0.16747
 Alpha  occ. eigenvalues --   -0.15631  -0.00953
 Alpha virt. eigenvalues --    0.15695   0.66480   0.72019   0.91119   0.91704
 Alpha virt. eigenvalues --    0.91980   0.95046   0.95759   1.01439   1.01906
 Alpha virt. eigenvalues --    1.04516   1.10291   1.11903   1.13366   1.14617

 Mulliken charges and spin densities:
               1          2
     1  O   -0.306521   0.236787
     2  O   -0.193479   0.263213
     3  O   -0.193479   0.263213
     4  O   -0.306521   0.236787
 Sum of Mulliken charges =  -1.00000   1.00000

 Dipole moment (field-independent basis, Debye):
    X=             -0.0000    Y=             -0.0000    Z=             -0.0000  Tot=              0.0000
 Quadrupole moment (field-independent basis, Debye-Ang):
   XX=            -23.1991   YY=            -20.7584   ZZ=            -45.2509
   XY=              0.0000   XZ=              0.0000   YZ=              0.0000

 802\PMP2-0=-300.1268013\MP4SDQ=-300.1158581\CCSD=-300.1125499\CCSD(T)=
 Normal termination of Gaussian 16 at Sun Feb 18 00:00:32 2024.
