 Gaussian 16, Revision A.03,
 Gaussian 16:  ES64L-G16RevA.03 25-Dec-2016

 -----------------------------------------------
 #p ROCCSD(T,MaxCyc=200)/cc-pVTZ SCF(MaxCyc=200)
 -----------------------------------------------

 ---------
 O2_O2_285
 ---------
 Symbolic Z-matrix:
 Charge = -1 Multiplicity = 2

                         Standard orientation:
 ---------------------------------------------------------------------
 Center     Atomic      Atomic             Coordinates (Angstroms)
 Number     Number       Type             X           Y           Z
 ---------------------------------------------------------------------
      1          8           0        0.000000    0.000000    3.560000
      2          8           0        0.000000    0.000000    2.400000
      3          8           0        0.000000    0.000000   -2.400000
      4          8           0        0.000000    0.000000   -3.560000
 ---------------------------------------------------------------------

 SCF Done:  E(ROHF) =  -299.163761185     A.U. after   13 cycles
 E2 =    -0.9598882616D+00 EUMP2 =    -0.30012364944639D+03
 CCSD(T)
 CCSD(T)= -0.30014686340D+03

 Unable to determine electronic state:  an orbital has unidentified symmetry.
 Alpha  occ. eigenvalues --  -20.44537 -20.44537 -20.44184 -20.44184  -1.44297
 Alpha  occ. eigenvalues --   -1.44294  -0.85139  -0.85096  -0.52671  -0.52670
 Alpha  occ. eigenvalues --   -0.49895  -0.49866  -0.48701  -0.48514  -0.18804
 Alpha  occ. eigenvalues --   -0.18798  -0.00074
 Alpha virt. eigenvalues --    0.09035   0.62681   0.64672   0.91238   0.91274
 Alpha virt. eigenvalues --    0.92044   0.92074   0.92845   0.93993   1.03307
 Alpha virt. eigenvalues --    1.03426   1.03681   1.03797   1.04182   1.05118

 Mulliken charges and spin densities:
               1          2
     1  O   -0.270698   0.243494
     2  O   -0.229302   0.256506
     3  O   -0.229302   0.256506
     4  O   -0.270698   0.243494
 Sum of Mulliken charges =  -1.00000   1.00000

 Dipole moment (field-independent basis, Debye):
    X=             -0.0000    Y=              0.0000    Z=              0.0000  Tot=              0.0000
 Quadrupole moment (field-independent basis, Debye-Ang):
   XX=            -23.1842   YY=            -20.6690   ZZ=            -69.9575
   XY=              0.0000   XZ=              0.0000   YZ=              0.0000

 612\PMP2-0=-300.1236494\MP4SDQ=-300.1087486\CCSD=-300.1057876\CCSD(T)=
 Normal termination of Gaussian 16 at Sun Feb 18 05:36:43 2024.
