 Gaussian 16, Revision A.03,
 Gaussian 16:  ES64L-G16RevA.03 25-Dec-2016

 -----------------------------------------------
 #p ROCCSD(T,MaxCyc=200)/cc-pVTZ SCF(MaxCyc=200)
 -----------------------------------------------

 ---------
 O2_O2_227
 ---------
 Symbolic Z-matrix:
 Charge = -1 Multiplicity = 2

                         Standard orientation:
 ---------------------------------------------------------------------
 Center     Atomic      Atomic             Coordinates (Angstroms)
 Number     Number       Type             X           Y           Z
 ---------------------------------------------------------------------
      1          8           0       -0.870000   -2.290000    0.000000
      2          8           0        0.290000   -2.290000    0.000000
      3          8           0        0.290000    1.710000    0.000000
      4          8           0        0.290000    2.870000    0.000000
 ---------------------------------------------------------------------

 SCF Done:  E(ROHF) =  -299.165979381     A.U. after   15 cycles
 E2 =    -0.9586018133D+00 EUMP2 =    -0.30012458119417D+03
 CCSD(T)
 CCSD(T)= -0.30014919846D+03

 The electronic state is 2-A'.
 Alpha  occ. eigenvalues --  -20.43890 -20.43314 -20.43075 -20.42954  -1.43495
 Alpha  occ. eigenvalues --   -1.42910  -0.84255  -0.83845  -0.51878  -0.51312
 Alpha  occ. eigenvalues --   -0.49051  -0.48642  -0.47696  -0.47224  -0.17997
 Alpha  occ. eigenvalues --   -0.17482  -0.00317
 Alpha virt. eigenvalues --    0.11551   0.63890   0.64810   0.89906   0.92086
 Alpha virt. eigenvalues --    0.92775   0.93459   0.94381   0.97066   1.03598
 Alpha virt. eigenvalues --    1.04150   1.04650   1.05393   1.05690   1.07245

 Mulliken charges and spin densities:
               1          2
     1  O   -0.258831   0.251261
     2  O   -0.247759   0.255593
     3  O   -0.216641   0.255608
     4  O   -0.276768   0.237537
 Sum of Mulliken charges =  -1.00000   1.00000

 Dipole moment (field-independent basis, Debye):
    X=              0.0425    Y=              0.0003    Z=              0.0000  Tot=              0.0425
 Quadrupole moment (field-independent basis, Debye-Ang):
   XX=            -23.5431   YY=            -49.5941   ZZ=            -23.1894
   XY=             -3.3692   XZ=              0.0000   YZ=              0.0000

 Normal termination of Gaussian 16 at Sun Feb 18 03:15:30 2024.
