 Gaussian 16, Revision A.03,
 Gaussian 16:  ES64L-G16RevA.03 25-Dec-2016

 -----------------------------------------------
 #p ROCCSD(T,MaxCyc=200)/cc-pVTZ SCF(MaxCyc=200)
 -----------------------------------------------

 ---------
 O2_O2_111
 ---------
 Symbolic Z-matrix:
 Charge = -1 Multiplicity = 2

                         Standard orientation:
 ---------------------------------------------------------------------
 Center     Atomic      Atomic             Coordinates (Angstroms)
 Number     Number       Type             X           Y           Z
 ---------------------------------------------------------------------
      1          8           0        0.000000    0.000000    2.400000
      2          8           0        0.000000    0.000000    1.240000
      3          8           0        0.000000    0.000000   -1.240000
      4          8           0        0.000000    0.000000   -2.400000
 ---------------------------------------------------------------------

 SCF Done:  E(ROHF) =  -299.169446191     A.U. after   12 cycles
 E2 =    -0.9573717631D+00 EUMP2 =    -0.30012681795436D+03
 CCSD(T)
 CCSD(T)= -0.30015419627D+03

 Unable to determine electronic state:  an orbital has unidentified symmetry.
 Alpha  occ. eigenvalues --  -20.42156 -20.42155 -20.40936 -20.40936  -1.41626
 Alpha  occ. eigenvalues --   -1.41424  -0.83432  -0.81068  -0.50136  -0.49667
 Alpha  occ. eigenvalues --   -0.48849  -0.46362  -0.45084  -0.44825  -0.16660
 Alpha  occ. eigenvalues --   -0.15253  -0.01159
 Alpha virt. eigenvalues --    0.16451   0.67607   0.72076   0.91058   0.91602
 Alpha virt. eigenvalues --    0.93497   0.95373   0.96076   1.01527   1.01996
 Alpha virt. eigenvalues --    1.05031   1.11682   1.11882   1.13517   1.16043

 Mulliken charges and spin densities:
               1          2
     1  O   -0.312975   0.236612
     2  O   -0.187025   0.263388
     3  O   -0.187025   0.263388
     4  O   -0.312975   0.236612
 Sum of Mulliken charges =  -1.00000   1.00000

 Dipole moment (field-independent basis, Debye):
    X=             -0.0000    Y=             -0.0000    Z=              0.0000  Tot=              0.0000
 Quadrupole moment (field-independent basis, Debye-Ang):
   XX=            -23.1996   YY=            -20.7712   ZZ=            -44.2882
   XY=              0.0000   XZ=              0.0000   YZ=              0.0000

 462\PMP2-0=-300.126818\MP4SDQ=-300.1162473\CCSD=-300.1129088\CCSD(T)=-
 Normal termination of Gaussian 16 at Sat Feb 17 23:45:51 2024.
