 Gaussian 16, Revision A.03,
 Gaussian 16:  ES64L-G16RevA.03 25-Dec-2016

 -----------------------------------------------
 #p ROCCSD(T,MaxCyc=200)/cc-pVTZ SCF(MaxCyc=200)
 -----------------------------------------------

 --------
 O2_O2_52
 --------
 Symbolic Z-matrix:
 Charge = -1 Multiplicity = 2

                         Standard orientation:
 ---------------------------------------------------------------------
 Center     Atomic      Atomic             Coordinates (Angstroms)
 Number     Number       Type             X           Y           Z
 ---------------------------------------------------------------------
      1          8           0        0.615183   -1.745183    0.000000
      2          8           0       -0.205061   -0.924939    0.000000
      3          8           0       -0.205061    0.755061   -0.000000
      4          8           0       -0.205061    1.915061   -0.000000
 ---------------------------------------------------------------------

 SCF Done:  E(ROHF) =  -299.132991379     A.U. after   21 cycles
 E2 =    -0.9440813100D+00 EUMP2 =    -0.30007707268926D+03
 CCSD(T)
 CCSD(T)= -0.30012471266D+03

 The electronic state is 2-A".
 Alpha  occ. eigenvalues --  -20.50525 -20.44077 -20.30186 -20.30082  -1.45920
 Alpha  occ. eigenvalues --   -1.33312  -0.90092  -0.74482  -0.55208  -0.52632
 Alpha  occ. eigenvalues --   -0.47000  -0.44641  -0.40124  -0.31110  -0.21313
 Alpha  occ. eigenvalues --   -0.10512  -0.06779
 Alpha virt. eigenvalues --    0.30374   0.68002   0.76365   0.91095   0.91927
 Alpha virt. eigenvalues --    0.95022   0.99279   1.00900   1.02056   1.05270
 Alpha virt. eigenvalues --    1.05353   1.13479   1.16706   1.20067   1.25311

 Mulliken charges and spin densities:
               1          2
     1  O   -0.256925   0.001456
     2  O    0.071491   0.003532
     3  O   -0.375173   0.452472
     4  O   -0.439393   0.542540
 Sum of Mulliken charges =  -1.00000   1.00000

 Dipole moment (field-independent basis, Debye):
    X=              0.0654    Y=             -3.3304    Z=              0.0000  Tot=              3.3310
 Quadrupole moment (field-independent basis, Debye-Ang):
   XX=            -23.2671   YY=            -36.5763   ZZ=            -22.1313
   XY=              3.2727   XZ=              0.0000   YZ=              0.0000

 9068\CCSD=-300.077136\CCSD(T)=-300.1247127\RMSD=7.567e-09\PG=CS [SG(O4
 Normal termination of Gaussian 16 at Sat Feb 17 21:41:36 2024.
