 Gaussian 16, Revision A.03,
 Gaussian 16:  ES64L-G16RevA.03 25-Dec-2016

 -----------------------------------------------
 #p ROCCSD(T,MaxCyc=200)/cc-pVTZ SCF(MaxCyc=200)
 -----------------------------------------------

 ---------
 O2_O2_242
 ---------
 Symbolic Z-matrix:
 Charge = -1 Multiplicity = 2

                         Standard orientation:
 ---------------------------------------------------------------------
 Center     Atomic      Atomic             Coordinates (Angstroms)
 Number     Number       Type             X           Y           Z
 ---------------------------------------------------------------------
      1          8           0       -0.870000   -2.390000    0.000000
      2          8           0        0.290000   -2.390000    0.000000
      3          8           0        0.290000    1.810000    0.000000
      4          8           0        0.290000    2.970000    0.000000
 ---------------------------------------------------------------------

 SCF Done:  E(ROHF) =  -299.165470269     A.U. after   15 cycles
 E2 =    -0.9588330188D+00 EUMP2 =    -0.30012430328743D+03
 CCSD(T)
 CCSD(T)= -0.30014874569D+03

 The electronic state is 2-A'.
 Alpha  occ. eigenvalues --  -20.44049 -20.43527 -20.43295 -20.43178  -1.43686
 Alpha  occ. eigenvalues --   -1.43140  -0.84458  -0.84070  -0.52068  -0.51539
 Alpha  occ. eigenvalues --   -0.49246  -0.48864  -0.47901  -0.47470  -0.18190
 Alpha  occ. eigenvalues --   -0.17706  -0.00264
 Alpha virt. eigenvalues --    0.11040   0.63952   0.64563   0.90736   0.91918
 Alpha virt. eigenvalues --    0.92651   0.93185   0.94166   0.95880   1.03796
 Alpha virt. eigenvalues --    1.04001   1.04363   1.04979   1.05474   1.06402

 Mulliken charges and spin densities:
               1          2
     1  O   -0.257833   0.251390
     2  O   -0.248353   0.254936
     3  O   -0.218879   0.255317
     4  O   -0.274935   0.238357
 Sum of Mulliken charges =  -1.00000   1.00000

 Dipole moment (field-independent basis, Debye):
    X=              0.0386    Y=              0.0071    Z=              0.0000  Tot=              0.0392
 Quadrupole moment (field-independent basis, Debye-Ang):
   XX=            -23.5330   YY=            -51.8123   ZZ=            -23.1882
   XY=             -3.4964   XZ=              0.0000   YZ=              0.0000

 36\CCSD(T)=-300.1487457\RMSD=4.352e-09\PG=CS [SG(O4)]\\@
 Normal termination of Gaussian 16 at Sun Feb 18 03:51:54 2024.
