 Gaussian 16, Revision A.03,
 Gaussian 16:  ES64L-G16RevA.03 25-Dec-2016

 -----------------------------------------------
 #p ROCCSD(T,MaxCyc=200)/cc-pVTZ SCF(MaxCyc=200)
 -----------------------------------------------

 --------
 O2_O2_36
 --------
 Symbolic Z-matrix:
 Charge = -1 Multiplicity = 2

                         Standard orientation:
 ---------------------------------------------------------------------
 Center     Atomic      Atomic             Coordinates (Angstroms)
 Number     Number       Type             X           Y           Z
 ---------------------------------------------------------------------
      1          8           0        0.000000    0.000000    1.900000
      2          8           0        0.000000    0.000000    0.740000
      3          8           0        0.000000    0.000000   -0.740000
      4          8           0        0.000000    0.000000   -1.900000
 ---------------------------------------------------------------------

 SCF Done:  E(ROHF) =  -298.971561227     A.U. after   12 cycles
 E2 =    -0.1133264327D+01 EUMP2 =    -0.30010482555466D+03
 CCSD(T)
 CCSD(T)= -0.30007475728D+03

 Unable to determine electronic state:  an orbital has unidentified symmetry.
 Alpha  occ. eigenvalues --  -20.45574 -20.45566 -20.35448 -20.35448  -1.43815
 Alpha  occ. eigenvalues --   -1.39578  -0.97915  -0.72739  -0.55252  -0.54317
 Alpha  occ. eigenvalues --   -0.48565  -0.47897  -0.39656  -0.26591  -0.20229
 Alpha  occ. eigenvalues --   -0.12148  -0.05915
 Alpha virt. eigenvalues --    0.27978   0.71530   0.72680   0.91878   0.93727
 Alpha virt. eigenvalues --    0.96932   0.98585   0.99688   1.01496   1.06852
 Alpha virt. eigenvalues --    1.09386   1.12087   1.19636   1.23515   1.26092

 Mulliken charges and spin densities:
               1          2
     1  O   -0.448569   0.171461
     2  O   -0.051431   0.328539
     3  O   -0.051431   0.328539
     4  O   -0.448569   0.171461
 Sum of Mulliken charges =  -1.00000   1.00000

 Dipole moment (field-independent basis, Debye):
    X=             -0.0000    Y=             -0.0000    Z=              0.0000  Tot=              0.0000
 Quadrupole moment (field-independent basis, Debye-Ang):
   XX=            -22.3597   YY=            -21.7996   ZZ=            -40.6752
   XY=              0.0000   XZ=              0.0000   YZ=              0.0000

 612\PMP2-0=-300.1048256\MP4SDQ=-299.9999864\CCSD=-300.0026865\CCSD(T)=
 Normal termination of Gaussian 16 at Sat Feb 17 21:09:51 2024.
