 Gaussian 16, Revision A.03,
 Gaussian 16:  ES64L-G16RevA.03 25-Dec-2016

 -----------------------------------------------
 #p ROCCSD(T,MaxCyc=200)/cc-pVTZ SCF(MaxCyc=200)
 -----------------------------------------------

 --------
 O2_O2_70
 --------
 Symbolic Z-matrix:
 Charge = -1 Multiplicity = 2

                         Standard orientation:
 ---------------------------------------------------------------------
 Center     Atomic      Atomic             Coordinates (Angstroms)
 Number     Number       Type             X           Y           Z
 ---------------------------------------------------------------------
      1          8           0        0.615183   -1.865183   -0.000000
      2          8           0       -0.205061   -1.044939   -0.000000
      3          8           0       -0.205061    0.875061    0.000000
      4          8           0       -0.205061    2.035061    0.000000
 ---------------------------------------------------------------------

 SCF Done:  E(ROHF) =  -299.163748865     A.U. after   18 cycles
 E2 =    -0.9482064455D+00 EUMP2 =    -0.30011195531079D+03
 CCSD(T)
 CCSD(T)= -0.30017425558D+03

 The electronic state is 2-A'.
 Alpha  occ. eigenvalues --  -20.50897 -20.48733 -20.30344 -20.28660  -1.48022
 Alpha  occ. eigenvalues --   -1.32458  -0.88437  -0.75010  -0.56883  -0.54394
 Alpha  occ. eigenvalues --   -0.46674  -0.42944  -0.38995  -0.36002  -0.22778
 Alpha  occ. eigenvalues --   -0.09733  -0.04472
 Alpha virt. eigenvalues --    0.25660   0.66794   0.74760   0.89346   0.89936
 Alpha virt. eigenvalues --    0.96458   0.97294   0.99638   1.03817   1.05105
 Alpha virt. eigenvalues --    1.07908   1.10134   1.15699   1.21087   1.21388

 Mulliken charges and spin densities:
               1          2
     1  O   -0.465035   0.480235
     2  O   -0.374846   0.517510
     3  O    0.050981  -0.000935
     4  O   -0.211099   0.003190
 Sum of Mulliken charges =  -1.00000   1.00000

 Dipole moment (field-independent basis, Debye):
    X=             -0.8308    Y=              4.2581    Z=              0.0000  Tot=              4.3384
 Quadrupole moment (field-independent basis, Debye-Ang):
   XX=            -24.1048   YY=            -37.4935   ZZ=            -21.7343
   XY=              3.4509   XZ=              0.0000   YZ=             -0.0000

 5043\CCSD=-300.1289645\CCSD(T)=-300.1742556\RMSD=9.817e-09\PG=CS [SG(O
 Normal termination of Gaussian 16 at Sat Feb 17 22:18:52 2024.
