 Gaussian 16, Revision A.03,
 Gaussian 16:  ES64L-G16RevA.03 25-Dec-2016

 -----------------------------------------------
 #p ROCCSD(T,MaxCyc=200)/cc-pVTZ SCF(MaxCyc=200)
 -----------------------------------------------

 ---------
 O2_O2_205
 ---------
 Symbolic Z-matrix:
 Charge = -1 Multiplicity = 2

                         Standard orientation:
 ---------------------------------------------------------------------
 Center     Atomic      Atomic             Coordinates (Angstroms)
 Number     Number       Type             X           Y           Z
 ---------------------------------------------------------------------
      1          8           0        0.615183   -2.765183    0.000000
      2          8           0       -0.205061   -1.944939    0.000000
      3          8           0       -0.205061    1.775061   -0.000000
      4          8           0       -0.205061    2.935061   -0.000000
 ---------------------------------------------------------------------

 SCF Done:  E(ROHF) =  -299.190841425     A.U. after   35 cycles
 E2 =    -0.9202482752D+00 EUMP2 =    -0.30011108969967D+03
 CCSD(T)
 CCSD(T)= -0.30014759699D+03

 The electronic state is 2-A".
 Alpha  occ. eigenvalues --  -20.61504 -20.61091 -20.24791 -20.24713  -1.58340
 Alpha  occ. eigenvalues --   -1.27845  -0.96963  -0.70920  -0.67091  -0.63532
 Alpha  occ. eigenvalues --   -0.55916  -0.39318  -0.35770  -0.33829  -0.33172
 Alpha  occ. eigenvalues --   -0.05995  -0.01950
 Alpha virt. eigenvalues --    0.16491   0.54476   0.71767   0.81839   0.82196
 Alpha virt. eigenvalues --    0.85190   0.91620   0.93636   0.96102   0.99359
 Alpha virt. eigenvalues --    1.02741   1.04947   1.09606   1.13461   1.15707

 Mulliken charges and spin densities:
               1          2
     1  O   -0.042998   0.000023
     2  O    0.042553   0.000036
     3  O   -0.500999   0.499330
     4  O   -0.498556   0.500612
 Sum of Mulliken charges =  -1.00000   1.00000

 Dipole moment (field-independent basis, Debye):
    X=              0.8239    Y=            -11.0016    Z=              0.0000  Tot=             11.0324
 Quadrupole moment (field-independent basis, Debye-Ang):
   XX=            -23.4371   YY=            -53.5829   ZZ=            -20.6003
   XY=              2.6550   XZ=             -0.0000   YZ=              0.0000

 47856\CCSD=-300.111917\CCSD(T)=-300.147597\RMSD=5.992e-09\PG=CS [SG(O4
 Normal termination of Gaussian 16 at Sun Feb 18 02:33:55 2024.
