 Gaussian 16, Revision A.03,
 Gaussian 16:  ES64L-G16RevA.03 25-Dec-2016

 -----------------------------------------------
 #p ROCCSD(T,MaxCyc=200)/cc-pVTZ SCF(MaxCyc=200)
 -----------------------------------------------

 --------
 O2_O2_18
 --------
 Symbolic Z-matrix:
 Charge = -1 Multiplicity = 2

                         Standard orientation:
 ---------------------------------------------------------------------
 Center     Atomic      Atomic             Coordinates (Angstroms)
 Number     Number       Type             X           Y           Z
 ---------------------------------------------------------------------
      1          8           0        0.000000    0.000000    1.780000
      2          8           0        0.000000    0.000000    0.620000
      3          8           0        0.000000    0.000000   -0.620000
      4          8           0        0.000000    0.000000   -1.780000
 ---------------------------------------------------------------------

 SCF Done:  E(ROHF) =  -298.755538255     A.U. after   13 cycles
 E2 =    -0.1121952868D+01 EUMP2 =    -0.29987749112374D+03
 CCSD(T)
 CCSD(T)= -0.29985538192D+03

 Unable to determine electronic state:  an orbital has unidentified symmetry.
 Alpha  occ. eigenvalues --  -20.47209 -20.47173 -20.31488 -20.31487  -1.49635
 Alpha  occ. eigenvalues --   -1.37897  -1.10337  -0.68318  -0.61005  -0.54829
 Alpha  occ. eigenvalues --   -0.53167  -0.46428  -0.37232  -0.20975  -0.09947
 Alpha  occ. eigenvalues --   -0.09006  -0.08764
 Alpha virt. eigenvalues --    0.32889   0.70914   0.74218   0.89785   0.91247
 Alpha virt. eigenvalues --    0.92888   0.95905   1.00138   1.01189   1.09312
 Alpha virt. eigenvalues --    1.11231   1.12191   1.24366   1.27178   1.32027

 Mulliken charges and spin densities:
               1          2
     1  O   -0.469298   0.159528
     2  O   -0.030702   0.340472
     3  O   -0.030702   0.340472
     4  O   -0.469298   0.159528
 Sum of Mulliken charges =  -1.00000   1.00000

 Dipole moment (field-independent basis, Debye):
    X=             -0.0000    Y=              0.0000    Z=             -0.0000  Tot=              0.0000
 Quadrupole moment (field-independent basis, Debye-Ang):
   XX=            -21.5222   YY=            -22.1071   ZZ=            -42.1150
   XY=              0.0000   XZ=              0.0000   YZ=             -0.0000

 83\PMP2-0=-299.8774911\MP4SDQ=-299.8010248\CCSD=-299.7877865\CCSD(T)=-
 Normal termination of Gaussian 16 at Sat Feb 17 20:38:02 2024.
