 Gaussian 16, Revision A.03,
 Gaussian 16:  ES64L-G16RevA.03 25-Dec-2016

 -----------------------------------------------
 #p ROCCSD(T,MaxCyc=200)/cc-pVTZ SCF(MaxCyc=200)
 -----------------------------------------------

 ---------
 O2_O2_245
 ---------
 Symbolic Z-matrix:
 Charge = -1 Multiplicity = 2

                         Standard orientation:
 ---------------------------------------------------------------------
 Center     Atomic      Atomic             Coordinates (Angstroms)
 Number     Number       Type             X           Y           Z
 ---------------------------------------------------------------------
      1          8           0       -0.870000   -2.410000    0.000000
      2          8           0        0.290000   -2.410000    0.000000
      3          8           0        0.290000    1.830000    0.000000
      4          8           0        0.290000    2.990000    0.000000
 ---------------------------------------------------------------------

 SCF Done:  E(ROHF) =  -299.165386533     A.U. after   15 cycles
 E2 =    -0.9588777274D+00 EUMP2 =    -0.30012426426078D+03
 CCSD(T)
 CCSD(T)= -0.30014868335D+03

 The electronic state is 2-A'.
 Alpha  occ. eigenvalues --  -20.44081 -20.43568 -20.43338 -20.43222  -1.43723
 Alpha  occ. eigenvalues --   -1.43185  -0.84497  -0.84114  -0.52104  -0.51583
 Alpha  occ. eigenvalues --   -0.49284  -0.48906  -0.47941  -0.47517  -0.18227
 Alpha  occ. eigenvalues --   -0.17750  -0.00256
 Alpha virt. eigenvalues --    0.10944   0.63953   0.64515   0.90874   0.91884
 Alpha virt. eigenvalues --    0.92623   0.93136   0.94125   0.95667   1.03825
 Alpha virt. eigenvalues --    1.03969   1.04313   1.04907   1.05431   1.06258

 Mulliken charges and spin densities:
               1          2
     1  O   -0.257655   0.251405
     2  O   -0.248447   0.254819
     3  O   -0.219312   0.255262
     4  O   -0.274586   0.238514
 Sum of Mulliken charges =  -1.00000   1.00000

 Dipole moment (field-independent basis, Debye):
    X=              0.0378    Y=              0.0082    Z=              0.0000  Tot=              0.0387
 Quadrupole moment (field-independent basis, Debye-Ang):
   XX=            -23.5312   YY=            -52.2671   ZZ=            -23.1879
   XY=             -3.5219   XZ=              0.0000   YZ=              0.0000

 29\CCSD(T)=-300.1486833\RMSD=5.019e-09\PG=CS [SG(O4)]\\@
 Normal termination of Gaussian 16 at Sun Feb 18 03:55:56 2024.
