 Gaussian 16, Revision A.03,
 Gaussian 16:  ES64L-G16RevA.03 25-Dec-2016

 -----------------------------------------------
 #p ROCCSD(T,MaxCyc=200)/cc-pVTZ SCF(MaxCyc=200)
 -----------------------------------------------

 ---------
 O2_O2_105
 ---------
 Symbolic Z-matrix:
 Charge = -1 Multiplicity = 2

                         Standard orientation:
 ---------------------------------------------------------------------
 Center     Atomic      Atomic             Coordinates (Angstroms)
 Number     Number       Type             X           Y           Z
 ---------------------------------------------------------------------
      1          8           0        0.000000    0.000000    2.360000
      2          8           0        0.000000    0.000000    1.200000
      3          8           0        0.000000    0.000000   -1.200000
      4          8           0        0.000000    0.000000   -2.360000
 ---------------------------------------------------------------------

 SCF Done:  E(ROHF) =  -299.169196136     A.U. after   12 cycles
 E2 =    -0.9573104307D+00 EUMP2 =    -0.30012650656712D+03
 CCSD(T)
 CCSD(T)= -0.30015412323D+03

 Unable to determine electronic state:  an orbital has unidentified symmetry.
 Alpha  occ. eigenvalues --  -20.42007 -20.42005 -20.40723 -20.40723  -1.41490
 Alpha  occ. eigenvalues --   -1.41240  -0.83533  -0.80698  -0.50026  -0.49460
 Alpha  occ. eigenvalues --   -0.49002  -0.46270  -0.44844  -0.44279  -0.16611
 Alpha  occ. eigenvalues --   -0.14971  -0.01322
 Alpha virt. eigenvalues --    0.17003   0.68265   0.72109   0.91070   0.91590
 Alpha virt. eigenvalues --    0.94624   0.95595   0.96291   1.01654   1.02127
 Alpha virt. eigenvalues --    1.05400   1.11868   1.12711   1.13659   1.17000

 Mulliken charges and spin densities:
               1          2
     1  O   -0.317796   0.236642
     2  O   -0.182204   0.263358
     3  O   -0.182204   0.263358
     4  O   -0.317796   0.236642
 Sum of Mulliken charges =  -1.00000   1.00000

 Dipole moment (field-independent basis, Debye):
    X=             -0.0000    Y=             -0.0000    Z=              0.0000  Tot=              0.0000
 Quadrupole moment (field-independent basis, Debye-Ang):
   XX=            -23.1994   YY=            -20.7799   ZZ=            -43.6769
   XY=              0.0000   XZ=              0.0000   YZ=              0.0000

 961\PMP2-0=-300.1265066\MP4SDQ=-300.1161796\CCSD=-300.1128206\CCSD(T)=
 Normal termination of Gaussian 16 at Sat Feb 17 23:34:10 2024.
