 Gaussian 16, Revision A.03,
 Gaussian 16:  ES64L-G16RevA.03 25-Dec-2016

 -----------------------------------------------
 #p ROCCSD(T,MaxCyc=200)/cc-pVTZ SCF(MaxCyc=200)
 -----------------------------------------------

 ---------
 O2_O2_102
 ---------
 Symbolic Z-matrix:
 Charge = -1 Multiplicity = 2

                         Standard orientation:
 ---------------------------------------------------------------------
 Center     Atomic      Atomic             Coordinates (Angstroms)
 Number     Number       Type             X           Y           Z
 ---------------------------------------------------------------------
      1          8           0        0.000000    0.000000    2.340000
      2          8           0        0.000000    0.000000    1.180000
      3          8           0        0.000000    0.000000   -1.180000
      4          8           0        0.000000    0.000000   -2.340000
 ---------------------------------------------------------------------

 SCF Done:  E(ROHF) =  -299.168908353     A.U. after   12 cycles
 E2 =    -0.9572977125D+00 EUMP2 =    -0.30012620606551D+03
 CCSD(T)
 CCSD(T)= -0.30015393834D+03

 Unable to determine electronic state:  an orbital has unidentified symmetry.
 Alpha  occ. eigenvalues --  -20.41925 -20.41924 -20.40610 -20.40610  -1.41421
 Alpha  occ. eigenvalues --   -1.41142  -0.83603  -0.80496  -0.49972  -0.49350
 Alpha  occ. eigenvalues --   -0.49093  -0.46226  -0.44717  -0.43977  -0.16590
 Alpha  occ. eigenvalues --   -0.14819  -0.01413
 Alpha virt. eigenvalues --    0.17296   0.68566   0.72122   0.91096   0.91605
 Alpha virt. eigenvalues --    0.95207   0.95707   0.96401   1.01739   1.02217
 Alpha virt. eigenvalues --    1.05592   1.11862   1.13178   1.13821   1.17477

 Mulliken charges and spin densities:
               1          2
     1  O   -0.320331   0.236718
     2  O   -0.179669   0.263282
     3  O   -0.179669   0.263282
     4  O   -0.320331   0.236718
 Sum of Mulliken charges =  -1.00000   1.00000

 Dipole moment (field-independent basis, Debye):
    X=             -0.0000    Y=             -0.0000    Z=              0.0000  Tot=              0.0000
 Quadrupole moment (field-independent basis, Debye-Ang):
   XX=            -23.1990   YY=            -20.7841   ZZ=            -43.3812
   XY=              0.0000   XZ=              0.0000   YZ=              0.0000

 Normal termination of Gaussian 16 at Sat Feb 17 23:27:24 2024.
