 Gaussian 16, Revision A.03,
 Gaussian 16:  ES64L-G16RevA.03 25-Dec-2016

 -----------------------------------------------
 #p ROCCSD(T,MaxCyc=200)/cc-pVTZ SCF(MaxCyc=200)
 -----------------------------------------------

 ---------
 O2_O2_126
 ---------
 Symbolic Z-matrix:
 Charge = -1 Multiplicity = 2

                         Standard orientation:
 ---------------------------------------------------------------------
 Center     Atomic      Atomic             Coordinates (Angstroms)
 Number     Number       Type             X           Y           Z
 ---------------------------------------------------------------------
      1          8           0        0.000000    0.000000    2.500000
      2          8           0        0.000000    0.000000    1.340000
      3          8           0        0.000000    0.000000   -1.340000
      4          8           0        0.000000    0.000000   -2.500000
 ---------------------------------------------------------------------

 SCF Done:  E(ROHF) =  -299.168961170     A.U. after   12 cycles
 E2 =    -0.9576402978D+00 EUMP2 =    -0.30012660146740D+03
 CCSD(T)
 CCSD(T)= -0.30015338228D+03

 Unable to determine electronic state:  an orbital has unidentified symmetry.
 Alpha  occ. eigenvalues --  -20.42474 -20.42473 -20.41408 -20.41408  -1.41951
 Alpha  occ. eigenvalues --   -1.41831  -0.83347  -0.81838  -0.50412  -0.50119
 Alpha  occ. eigenvalues --   -0.48613  -0.46603  -0.45917  -0.45614  -0.16813
 Alpha  occ. eigenvalues --   -0.15857  -0.00837
 Alpha virt. eigenvalues --    0.15234   0.65651   0.71978   0.91121   0.91198
 Alpha virt. eigenvalues --    0.91812   0.94831   0.95553   1.01443   1.01911
 Alpha virt. eigenvalues --    1.04197   1.09484   1.11912   1.13271   1.13686

 Mulliken charges and spin densities:
               1          2
     1  O   -0.302761   0.237000
     2  O   -0.197239   0.263000
     3  O   -0.197239   0.263000
     4  O   -0.302761   0.237000
 Sum of Mulliken charges =  -1.00000   1.00000

 Dipole moment (field-independent basis, Debye):
    X=             -0.0000    Y=              0.0000    Z=              0.0000  Tot=              0.0000
 Quadrupole moment (field-independent basis, Debye-Ang):
   XX=            -23.1985   YY=            -20.7501   ZZ=            -45.9207
   XY=              0.0000   XZ=              0.0000   YZ=              0.0000

 Normal termination of Gaussian 16 at Sun Feb 18 00:11:37 2024.
