 Gaussian 16, Revision A.03,
 Gaussian 16:  ES64L-G16RevA.03 25-Dec-2016

 -----------------------------------------------
 #p ROCCSD(T,MaxCyc=200)/cc-pVTZ SCF(MaxCyc=200)
 -----------------------------------------------

 --------
 O2_O2_85
 --------
 Symbolic Z-matrix:
 Charge = -1 Multiplicity = 2

                         Standard orientation:
 ---------------------------------------------------------------------
 Center     Atomic      Atomic             Coordinates (Angstroms)
 Number     Number       Type             X           Y           Z
 ---------------------------------------------------------------------
      1          8           0        0.615183   -1.965183    0.000000
      2          8           0       -0.205061   -1.144939    0.000000
      3          8           0       -0.205061    0.975061   -0.000000
      4          8           0       -0.205061    2.135061   -0.000000
 ---------------------------------------------------------------------

 SCF Done:  E(ROHF) =  -299.180975867     A.U. after   19 cycles
 E2 =    -0.9374879453D+00 EUMP2 =    -0.30011846381238D+03
 CCSD(T)
 CCSD(T)= -0.30018168869D+03

 The electronic state is 2-A'.
 Alpha  occ. eigenvalues --  -20.53241 -20.51595 -20.28488 -20.27676  -1.50204
 Alpha  occ. eigenvalues --   -1.31012  -0.89304  -0.74057  -0.59001  -0.55484
 Alpha  occ. eigenvalues --   -0.48364  -0.42076  -0.38141  -0.36028  -0.24943
 Alpha  occ. eigenvalues --   -0.08810  -0.03728
 Alpha virt. eigenvalues --    0.23908   0.65073   0.74683   0.88035   0.88235
 Alpha virt. eigenvalues --    0.94733   0.95607   0.98745   1.03921   1.04248
 Alpha virt. eigenvalues --    1.07196   1.11147   1.15821   1.18567   1.20611

 Mulliken charges and spin densities:
               1          2
     1  O   -0.467908   0.496428
     2  O   -0.426387   0.502942
     3  O    0.066015  -0.001035
     4  O   -0.171720   0.001665
 Sum of Mulliken charges =  -1.00000   1.00000

 Dipole moment (field-independent basis, Debye):
    X=             -0.8574    Y=              5.3370    Z=             -0.0000  Tot=              5.4054
 Quadrupole moment (field-independent basis, Debye-Ang):
   XX=            -24.1229   YY=            -38.4291   ZZ=            -21.7209
   XY=              3.4689   XZ=             -0.0000   YZ=              0.0000

 27\CCSD=-300.1459309\CCSD(T)=-300.1816887\RMSD=3.712e-09\PG=CS [SG(O4)
 Normal termination of Gaussian 16 at Sat Feb 17 22:48:52 2024.
