 Gaussian 16, Revision A.03,
 Gaussian 16:  ES64L-G16RevA.03 25-Dec-2016

 -----------------------------------------------
 #p ROCCSD(T,MaxCyc=200)/cc-pVTZ SCF(MaxCyc=200)
 -----------------------------------------------

 --------
 O2_O2_10
 --------
 Symbolic Z-matrix:
 Charge = -1 Multiplicity = 2

                         Standard orientation:
 ---------------------------------------------------------------------
 Center     Atomic      Atomic             Coordinates (Angstroms)
 Number     Number       Type             X           Y           Z
 ---------------------------------------------------------------------
      1          8           0        0.615183   -1.465183    0.000000
      2          8           0       -0.205061   -0.644939    0.000000
      3          8           0       -0.205061    0.475062    0.000000
      4          8           0       -0.205061    1.635060    0.000000
 ---------------------------------------------------------------------

 SCF Done:  E(ROHF) =  -298.898371903     A.U. after   17 cycles
 E2 =    -0.9329017468D+00 EUMP2 =    -0.29983127365018D+03
 CCSD(T)
 CCSD(T)= -0.29986465289D+03

 The electronic state is 2-A".
 Alpha  occ. eigenvalues --  -20.51342 -20.44737 -20.32473 -20.27711  -1.59807
 Alpha  occ. eigenvalues --   -1.35935  -1.13670  -0.68583  -0.68015  -0.60481
 Alpha  occ. eigenvalues --   -0.53862  -0.44555  -0.40411  -0.20923  -0.19443
 Alpha  occ. eigenvalues --   -0.11181  -0.06387
 Alpha virt. eigenvalues --    0.52037   0.72360   0.78926   0.89646   0.90664
 Alpha virt. eigenvalues --    0.92311   0.94906   1.01648   1.05245   1.07849
 Alpha virt. eigenvalues --    1.09792   1.12736   1.17182   1.17243   1.25017

 Mulliken charges and spin densities:
               1          2
     1  O   -0.644610   0.108265
     2  O    0.135115   0.294091
     3  O    0.055213   0.422231
     4  O   -0.545717   0.175412
 Sum of Mulliken charges =  -1.00000   1.00000

 Dipole moment (field-independent basis, Debye):
    X=             -1.1653    Y=              0.1818    Z=              0.0000  Tot=              1.1794
 Quadrupole moment (field-independent basis, Debye-Ang):
   XX=            -24.1691   YY=            -37.8924   ZZ=            -21.5335
   XY=              3.8993   XZ=             -0.0000   YZ=             -0.0000

 11\CCSD=-299.8278977\CCSD(T)=-299.8646529\RMSD=1.320e-09\PG=CS [SG(O4)
 Normal termination of Gaussian 16 at Sat Feb 17 20:25:35 2024.
