 Gaussian 16, Revision A.03,
 Gaussian 16:  ES64L-G16RevA.03 25-Dec-2016

 -----------------------------------------------
 #p ROCCSD(T,MaxCyc=200)/cc-pVTZ SCF(MaxCyc=200)
 -----------------------------------------------

 --------
 O2_O2_26
 --------
 Symbolic Z-matrix:
 Charge = -1 Multiplicity = 2

                         Standard orientation:
 ---------------------------------------------------------------------
 Center     Atomic      Atomic             Coordinates (Angstroms)
 Number     Number       Type             X           Y           Z
 ---------------------------------------------------------------------
      1          8           0       -0.870000   -0.950000    0.000000
      2          8           0        0.290000   -0.950000    0.000000
      3          8           0        0.290000    0.370000    0.000000
      4          8           0        0.290000    1.530000    0.000000
 ---------------------------------------------------------------------

 SCF Done:  E(ROHF) =  -298.947183047     A.U. after   20 cycles
 E2 =    -0.9347020649D+00 EUMP2 =    -0.29988188511205D+03
 CCSD(T)
 CCSD(T)= -0.29992712291D+03

 The electronic state is 2-A".
 Alpha  occ. eigenvalues --  -20.49204 -20.37268 -20.36827 -20.24334  -1.49843
 Alpha  occ. eigenvalues --   -1.35146  -0.95444  -0.74681  -0.58539  -0.55075
 Alpha  occ. eigenvalues --   -0.48584  -0.44791  -0.41668  -0.18688  -0.17912
 Alpha  occ. eigenvalues --   -0.10264  -0.09509
 Alpha virt. eigenvalues --    0.41959   0.67946   0.72370   0.86527   0.92674
 Alpha virt. eigenvalues --    0.96421   0.98526   1.00531   1.05362   1.09606
 Alpha virt. eigenvalues --    1.12133   1.13695   1.16438   1.18740   1.27911

 Mulliken charges and spin densities:
               1          2
     1  O   -0.601823   0.003247
     2  O    0.065972   0.031743
     3  O   -0.066429   0.456673
     4  O   -0.397720   0.508337
 Sum of Mulliken charges =  -1.00000   1.00000

 Dipole moment (field-independent basis, Debye):
    X=              2.0796    Y=             -0.1770    Z=              0.0000  Tot=              2.0871
 Quadrupole moment (field-independent basis, Debye-Ang):
   XX=            -25.6665   YY=            -31.0327   ZZ=            -21.8283
   XY=             -3.8623   XZ=              0.0000   YZ=              0.0000

 CCSD(T)=-299.9271229\RMSD=8.734e-09\PG=CS [SG(O4)]\\@
 Normal termination of Gaussian 16 at Sat Feb 17 20:52:03 2024.
