 Gaussian 16, Revision A.03,
 Gaussian 16:  ES64L-G16RevA.03 25-Dec-2016

 -----------------------------------------------
 #p ROCCSD(T,MaxCyc=200)/cc-pVTZ SCF(MaxCyc=200)
 -----------------------------------------------

 --------
 O2_O2_49
 --------
 Symbolic Z-matrix:
 Charge = -1 Multiplicity = 2

                         Standard orientation:
 ---------------------------------------------------------------------
 Center     Atomic      Atomic             Coordinates (Angstroms)
 Number     Number       Type             X           Y           Z
 ---------------------------------------------------------------------
      1          8           0        0.615183   -1.725183    0.000000
      2          8           0       -0.205061   -0.904939    0.000000
      3          8           0       -0.205061    0.735061   -0.000000
      4          8           0       -0.205061    1.895061   -0.000000
 ---------------------------------------------------------------------

 SCF Done:  E(ROHF) =  -299.122692491     A.U. after   21 cycles
 E2 =    -0.9456194320D+00 EUMP2 =    -0.30006831192282D+03
 CCSD(T)
 CCSD(T)= -0.30011390719D+03

 The electronic state is 2-A".
 Alpha  occ. eigenvalues --  -20.50144 -20.42939 -20.30664 -20.30586  -1.45420
 Alpha  occ. eigenvalues --   -1.33788  -0.90785  -0.74229  -0.54820  -0.52484
 Alpha  occ. eigenvalues --   -0.47042  -0.45051  -0.40403  -0.30201  -0.20918
 Alpha  occ. eigenvalues --   -0.10732  -0.07285
 Alpha virt. eigenvalues --    0.31180   0.68547   0.76145   0.91458   0.92322
 Alpha virt. eigenvalues --    0.95069   0.99306   1.01163   1.02164   1.05272
 Alpha virt. eigenvalues --    1.05707   1.13312   1.16275   1.20062   1.25581

 Mulliken charges and spin densities:
               1          2
     1  O   -0.276998   0.001750
     2  O    0.072466   0.004341
     3  O   -0.360386   0.449861
     4  O   -0.435082   0.544049
 Sum of Mulliken charges =  -1.00000   1.00000

 Dipole moment (field-independent basis, Debye):
    X=              0.0032    Y=             -3.0121    Z=              0.0000  Tot=              3.0121
 Quadrupole moment (field-independent basis, Debye-Ang):
   XX=            -23.3253   YY=            -36.4924   ZZ=            -22.1094
   XY=              3.3204   XZ=             -0.0000   YZ=              0.0000

 5637\CCSD=-300.0669329\CCSD(T)=-300.1139072\RMSD=5.340e-09\PG=CS [SG(O
 Normal termination of Gaussian 16 at Sat Feb 17 21:35:05 2024.
