 Gaussian 16, Revision A.03,
 Gaussian 16:  ES64L-G16RevA.03 25-Dec-2016

 -----------------------------------------------
 #p ROCCSD(T,MaxCyc=200)/cc-pVTZ SCF(MaxCyc=200)
 -----------------------------------------------

 --------
 O2_O2_13
 --------
 Symbolic Z-matrix:
 Charge = -1 Multiplicity = 2

                         Standard orientation:
 ---------------------------------------------------------------------
 Center     Atomic      Atomic             Coordinates (Angstroms)
 Number     Number       Type             X           Y           Z
 ---------------------------------------------------------------------
      1          8           0        0.615183   -1.485183    0.000000
      2          8           0       -0.205061   -0.664939    0.000000
      3          8           0       -0.205061    0.495061   -0.000000
      4          8           0       -0.205061    1.655061   -0.000000
 ---------------------------------------------------------------------

 SCF Done:  E(ROHF) =  -298.921970976     A.U. after   17 cycles
 E2 =    -0.9381751931D+00 EUMP2 =    -0.29986014616924D+03
 CCSD(T)
 CCSD(T)= -0.29989447900D+03

 The electronic state is 2-A".
 Alpha  occ. eigenvalues --  -20.50603 -20.45058 -20.33564 -20.27610  -1.56597
 Alpha  occ. eigenvalues --   -1.36349  -1.11777  -0.68343  -0.65955  -0.59569
 Alpha  occ. eigenvalues --   -0.53596  -0.45162  -0.40868  -0.21012  -0.19115
 Alpha  occ. eigenvalues --   -0.12236  -0.07167
 Alpha virt. eigenvalues --    0.49363   0.72339   0.78529   0.90004   0.91173
 Alpha virt. eigenvalues --    0.92597   0.95101   1.01263   1.04808   1.07773
 Alpha virt. eigenvalues --    1.09935   1.12549   1.16668   1.17281   1.24907

 Mulliken charges and spin densities:
               1          2
     1  O   -0.636957   0.086740
     2  O    0.104364   0.238126
     3  O    0.056304   0.455142
     4  O   -0.523711   0.219992
 Sum of Mulliken charges =  -1.00000   1.00000

 Dipole moment (field-independent basis, Debye):
    X=             -1.1263    Y=              0.3846    Z=              0.0000  Tot=              1.1902
 Quadrupole moment (field-independent basis, Debye-Ang):
   XX=            -24.2117   YY=            -37.8265   ZZ=            -21.6075
   XY=              3.9173   XZ=             -0.0000   YZ=              0.0000

 98\CCSD=-299.856173\CCSD(T)=-299.894479\RMSD=2.234e-09\PG=CS [SG(O4)]\
 Normal termination of Gaussian 16 at Sat Feb 17 20:30:08 2024.
