 Gaussian 16, Revision A.03,
 Gaussian 16:  ES64L-G16RevA.03 25-Dec-2016

 -----------------------------------------------
 #p ROCCSD(T,MaxCyc=200)/cc-pVTZ SCF(MaxCyc=200)
 -----------------------------------------------

 --------
 O2_O2_20
 --------
 Symbolic Z-matrix:
 Charge = -1 Multiplicity = 2

                         Standard orientation:
 ---------------------------------------------------------------------
 Center     Atomic      Atomic             Coordinates (Angstroms)
 Number     Number       Type             X           Y           Z
 ---------------------------------------------------------------------
      1          8           0       -0.870000   -0.910000    0.000000
      2          8           0        0.290000   -0.910000    0.000000
      3          8           0        0.290000    0.330000    0.000000
      4          8           0        0.290000    1.490000    0.000000
 ---------------------------------------------------------------------

 SCF Done:  E(ROHF) =  -298.899705824     A.U. after   20 cycles
 E2 =    -0.9257146503D+00 EUMP2 =    -0.29982542047417D+03
 CCSD(T)
 CCSD(T)= -0.29986728848D+03

 The electronic state is 2-A".
 Alpha  occ. eigenvalues --  -20.49322 -20.40239 -20.37585 -20.20966  -1.54540
 Alpha  occ. eigenvalues --   -1.35267  -0.98383  -0.74629  -0.62053  -0.56930
 Alpha  occ. eigenvalues --   -0.49813  -0.44262  -0.40755  -0.19093  -0.18314
 Alpha  occ. eigenvalues --   -0.09133  -0.08179
 Alpha virt. eigenvalues --    0.45828   0.68097   0.72082   0.86079   0.91839
 Alpha virt. eigenvalues --    0.96109   0.98428   1.00442   1.04620   1.10598
 Alpha virt. eigenvalues --    1.12178   1.13218   1.16318   1.20905   1.27619

 Mulliken charges and spin densities:
               1          2
     1  O   -0.703062   0.007862
     2  O    0.066176   0.064950
     3  O    0.051432   0.488777
     4  O   -0.414546   0.438411
 Sum of Mulliken charges =  -1.00000   1.00000

 Dipole moment (field-independent basis, Debye):
    X=              2.5243    Y=              0.1844    Z=              0.0000  Tot=              2.5310
 Quadrupole moment (field-independent basis, Debye-Ang):
   XX=            -26.0302   YY=            -30.9951   ZZ=            -21.7337
   XY=             -4.1212   XZ=              0.0000   YZ=              0.0000

 6\CCSD(T)=-299.8672885\RMSD=3.607e-09\PG=CS [SG(O4)]\\@
 Normal termination of Gaussian 16 at Sat Feb 17 20:41:51 2024.
