 Gaussian 16, Revision A.03,
 Gaussian 16:  ES64L-G16RevA.03 25-Dec-2016

 -----------------------------------------------
 #p ROCCSD(T,MaxCyc=200)/cc-pVTZ SCF(MaxCyc=200)
 -----------------------------------------------

 --------
 O2_O2_77
 --------
 Symbolic Z-matrix:
 Charge = -1 Multiplicity = 2

                         Standard orientation:
 ---------------------------------------------------------------------
 Center     Atomic      Atomic             Coordinates (Angstroms)
 Number     Number       Type             X           Y           Z
 ---------------------------------------------------------------------
      1          8           0       -0.870000   -1.290000    0.000000
      2          8           0        0.290000   -1.290000    0.000000
      3          8           0        0.290000    0.710000    0.000000
      4          8           0        0.290000    1.870000    0.000000
 ---------------------------------------------------------------------

 SCF Done:  E(ROHF) =  -299.179901856     A.U. after   27 cycles
 E2 =    -0.9478725934D+00 EUMP2 =    -0.30012777444959D+03
 CCSD(T)
 CCSD(T)= -0.30018078777D+03

 The electronic state is 2-A".
 Alpha  occ. eigenvalues --  -20.49539 -20.48109 -20.29863 -20.29761  -1.46461
 Alpha  occ. eigenvalues --   -1.32622  -0.86139  -0.76323  -0.55564  -0.52330
 Alpha  occ. eigenvalues --   -0.47359  -0.43936  -0.39628  -0.34195  -0.21676
 Alpha  occ. eigenvalues --   -0.10660  -0.05277
 Alpha virt. eigenvalues --    0.27727   0.63285   0.75784   0.89981   0.90705
 Alpha virt. eigenvalues --    0.92927   0.98935   1.00833   1.01593   1.02835
 Alpha virt. eigenvalues --    1.07214   1.09770   1.14119   1.19857   1.21570

 Mulliken charges and spin densities:
               1          2
     1  O   -0.119691   0.000351
     2  O   -0.036994   0.000881
     3  O   -0.403578   0.458057
     4  O   -0.439737   0.540711
 Sum of Mulliken charges =  -1.00000   1.00000

 Dipole moment (field-independent basis, Debye):
    X=             -0.6419    Y=             -3.9866    Z=              0.0000  Tot=              4.0379
 Quadrupole moment (field-independent basis, Debye-Ang):
   XX=            -24.0589   YY=            -33.2018   ZZ=            -22.2278
   XY=             -2.2151   XZ=              0.0000   YZ=              0.0000

 CCSD(T)=-300.1807878\RMSD=9.580e-09\PG=CS [SG(O4)]\\@
 Normal termination of Gaussian 16 at Sat Feb 17 22:32:42 2024.
