 Gaussian 16, Revision A.03,
 Gaussian 16:  ES64L-G16RevA.03 25-Dec-2016

 -----------------------------------------------
 #p ROCCSD(T,MaxCyc=200)/cc-pVTZ SCF(MaxCyc=200)
 -----------------------------------------------

 --------
 O2_O2_50
 --------
 Symbolic Z-matrix:
 Charge = -1 Multiplicity = 2

                         Standard orientation:
 ---------------------------------------------------------------------
 Center     Atomic      Atomic             Coordinates (Angstroms)
 Number     Number       Type             X           Y           Z
 ---------------------------------------------------------------------
      1          8           0       -0.870000   -1.110000    0.000000
      2          8           0        0.290000   -1.110000    0.000000
      3          8           0        0.290000    0.530000    0.000000
      4          8           0        0.290000    1.690000    0.000000
 ---------------------------------------------------------------------

 SCF Done:  E(ROHF) =  -299.106108025     A.U. after   25 cycles
 E2 =    -0.9622065525D+00 EUMP2 =    -0.30006831457787D+03
 CCSD(T)
 CCSD(T)= -0.30011152917D+03

 The electronic state is 2-A".
 Alpha  occ. eigenvalues --  -20.47032 -20.40203 -20.32095 -20.31545  -1.43786
 Alpha  occ. eigenvalues --   -1.34455  -0.86649  -0.77012  -0.52973  -0.49891
 Alpha  occ. eigenvalues --   -0.48572  -0.45393  -0.41459  -0.26736  -0.18013
 Alpha  occ. eigenvalues --   -0.12236  -0.07614
 Alpha virt. eigenvalues --    0.32721   0.65846   0.74642   0.88582   0.93132
 Alpha virt. eigenvalues --    0.95123   1.00080   1.00772   1.04637   1.05417
 Alpha virt. eigenvalues --    1.11024   1.12828   1.14524   1.18028   1.27435

 Mulliken charges and spin densities:
               1          2
     1  O   -0.244940   0.000725
     2  O   -0.022335   0.003647
     3  O   -0.321066   0.433098
     4  O   -0.411659   0.562531
 Sum of Mulliken charges =  -1.00000   1.00000

 Dipole moment (field-independent basis, Debye):
    X=              0.1457    Y=             -2.2768    Z=              0.0000  Tot=              2.2815
 Quadrupole moment (field-independent basis, Debye-Ang):
   XX=            -24.4223   YY=            -31.7617   ZZ=            -22.1172
   XY=             -2.5018   XZ=              0.0000   YZ=              0.0000

 CCSD(T)=-300.1115292\RMSD=5.810e-09\PG=CS [SG(O4)]\\@
 Normal termination of Gaussian 16 at Sat Feb 17 21:37:34 2024.
