 Gaussian 16, Revision A.03,
 Gaussian 16:  ES64L-G16RevA.03 25-Dec-2016

 -----------------------------------------------
 #p ROCCSD(T,MaxCyc=200)/cc-pVTZ SCF(MaxCyc=200)
 -----------------------------------------------

 --------
 O2_O2_98
 --------
 Symbolic Z-matrix:
 Charge = -1 Multiplicity = 2

                         Standard orientation:
 ---------------------------------------------------------------------
 Center     Atomic      Atomic             Coordinates (Angstroms)
 Number     Number       Type             X           Y           Z
 ---------------------------------------------------------------------
      1          8           0       -0.870000   -1.430000    0.000000
      2          8           0        0.290000   -1.430000    0.000000
      3          8           0        0.290000    0.850000    0.000000
      4          8           0        0.290000    2.010000    0.000000
 ---------------------------------------------------------------------

 SCF Done:  E(ROHF) =  -299.172904554     A.U. after   58 cycles
 E2 =    -0.9580065852D+00 EUMP2 =    -0.30013091113928D+03
 CCSD(T)
 CCSD(T)= -0.30016024133D+03

 The electronic state is 2-A'.
 Alpha  occ. eigenvalues --  -20.42838 -20.41030 -20.39357 -20.39116  -1.41804
 Alpha  occ. eigenvalues --   -1.39257  -0.82829  -0.80251  -0.50287  -0.49589
 Alpha  occ. eigenvalues --   -0.47586  -0.45633  -0.45008  -0.41044  -0.16301
 Alpha  occ. eigenvalues --   -0.13801  -0.02570
 Alpha virt. eigenvalues --    0.20004   0.66781   0.70557   0.91390   0.92887
 Alpha virt. eigenvalues --    0.96602   0.97648   0.97776   0.99145   1.02645
 Alpha virt. eigenvalues --    1.06585   1.07858   1.12040   1.12603   1.13807

 Mulliken charges and spin densities:
               1          2
     1  O   -0.299483   0.239874
     2  O   -0.240709   0.297970
     3  O   -0.150240   0.243948
     4  O   -0.309567   0.218207
 Sum of Mulliken charges =  -1.00000   1.00000

 Dipole moment (field-independent basis, Debye):
    X=              0.2656    Y=              0.2371    Z=              0.0000  Tot=              0.3560
 Quadrupole moment (field-independent basis, Debye-Ang):
   XX=            -23.7979   YY=            -34.7988   ZZ=            -23.2023
   XY=             -2.3332   XZ=              0.0000   YZ=              0.0000

 7\CCSD(T)=-300.1602413\RMSD=4.928e-09\PG=CS [SG(O4)]\\@
 Normal termination of Gaussian 16 at Sat Feb 17 23:18:59 2024.
