 Gaussian 16, Revision A.03,
 Gaussian 16:  ES64L-G16RevA.03 25-Dec-2016

 -----------------------------------------------
 #p ROCCSD(T,MaxCyc=200)/cc-pVTZ SCF(MaxCyc=200)
 -----------------------------------------------

 --------
 O2_O2_90
 --------
 Symbolic Z-matrix:
 Charge = -1 Multiplicity = 2

                         Standard orientation:
 ---------------------------------------------------------------------
 Center     Atomic      Atomic             Coordinates (Angstroms)
 Number     Number       Type             X           Y           Z
 ---------------------------------------------------------------------
      1          8           0        0.000000    0.000000    2.260000
      2          8           0        0.000000    0.000000    1.100000
      3          8           0        0.000000    0.000000   -1.100000
      4          8           0        0.000000    0.000000   -2.260000
 ---------------------------------------------------------------------

 SCF Done:  E(ROHF) =  -299.041176627     A.U. after   13 cycles
 E2 =    -0.1281412821D+01 EUMP2 =    -0.30032258944781D+03
 CCSD(T)
 CCSD(T)= -0.30019673570D+03

 Unable to determine electronic state:  an orbital has unidentified symmetry.
 Alpha  occ. eigenvalues --  -20.45828 -20.45827 -20.41137 -20.41136  -1.42941
 Alpha  occ. eigenvalues --   -1.42498  -0.85404  -0.80902  -0.53042  -0.52101
 Alpha  occ. eigenvalues --   -0.50739  -0.45814  -0.44004  -0.43787  -0.19343
 Alpha  occ. eigenvalues --   -0.17307  -0.01325
 Alpha virt. eigenvalues --    0.18992   0.69027   0.71700   0.89839   0.91623
 Alpha virt. eigenvalues --    0.95513   0.96727   0.97074   1.00935   1.03438
 Alpha virt. eigenvalues --    1.04997   1.11128   1.12849   1.14972   1.17493

 Mulliken charges and spin densities:
               1          2
     1  O   -0.354212   0.206867
     2  O   -0.145788   0.293133
     3  O   -0.145788   0.293133
     4  O   -0.354212   0.206867
 Sum of Mulliken charges =  -1.00000   1.00000

 Dipole moment (field-independent basis, Debye):
    X=             -0.0000    Y=             -0.0000    Z=              0.0000  Tot=              0.0000
 Quadrupole moment (field-independent basis, Debye-Ang):
   XX=            -22.5480   YY=            -21.9704   ZZ=            -42.6186
   XY=              0.0000   XZ=              0.0000   YZ=              0.0000

 66\PMP2-0=-300.3225894\MP4SDQ=-299.9495561\CCSD=-300.1018318\CCSD(T)=-
 Normal termination of Gaussian 16 at Sat Feb 17 22:58:59 2024.
