 Gaussian 16, Revision A.03,
 Gaussian 16:  ES64L-G16RevA.03 25-Dec-2016

 -----------------------------------------------
 #p ROCCSD(T,MaxCyc=200)/cc-pVTZ SCF(MaxCyc=200)
 -----------------------------------------------

 --------
 O2_O2_14
 --------
 Symbolic Z-matrix:
 Charge = -1 Multiplicity = 2

                         Standard orientation:
 ---------------------------------------------------------------------
 Center     Atomic      Atomic             Coordinates (Angstroms)
 Number     Number       Type             X           Y           Z
 ---------------------------------------------------------------------
      1          8           0       -0.870000   -0.870000    0.000000
      2          8           0        0.290000   -0.870000    0.000000
      3          8           0        0.290000    0.290000    0.000000
      4          8           0        0.290000    1.450000    0.000000
 ---------------------------------------------------------------------

 SCF Done:  E(ROHF) =  -298.845458249     A.U. after   18 cycles
 E2 =    -0.9220302292D+00 EUMP2 =    -0.29976748847830D+03
 CCSD(T)
 CCSD(T)= -0.29980622861D+03

 The electronic state is 2-A".
 Alpha  occ. eigenvalues --  -20.49801 -20.42256 -20.36573 -20.19708  -1.60791
 Alpha  occ. eigenvalues --   -1.34951  -1.01626  -0.75169  -0.66129  -0.58160
 Alpha  occ. eigenvalues --   -0.50677  -0.43313  -0.40303  -0.19321  -0.17791
 Alpha  occ. eigenvalues --   -0.07870  -0.07685
 Alpha virt. eigenvalues --    0.50422   0.67789   0.72007   0.86016   0.91028
 Alpha virt. eigenvalues --    0.95307   0.98775   1.00566   1.03932   1.10791
 Alpha virt. eigenvalues --    1.11832   1.13085   1.16265   1.22605   1.27673

 Mulliken charges and spin densities:
               1          2
     1  O   -0.761773   0.019076
     2  O    0.071500   0.130008
     3  O    0.144566   0.509585
     4  O   -0.454293   0.341331
 Sum of Mulliken charges =  -1.00000   1.00000

 Dipole moment (field-independent basis, Debye):
    X=              2.7277    Y=              0.0673    Z=              0.0000  Tot=              2.7286
 Quadrupole moment (field-independent basis, Debye-Ang):
   XX=            -26.1825   YY=            -31.0746   ZZ=            -21.6273
   XY=             -4.2431   XZ=              0.0000   YZ=              0.0000

 02\CCSD(T)=-299.8062286\RMSD=1.637e-09\PG=CS [SG(O4)]\\@
 Normal termination of Gaussian 16 at Sat Feb 17 20:31:55 2024.
