 Gaussian 16, Revision A.03,
 Gaussian 16:  ES64L-G16RevA.03 25-Dec-2016

 -----------------------------------------------
 #p ROCCSD(T,MaxCyc=200)/cc-pVTZ SCF(MaxCyc=200)
 -----------------------------------------------

 ---------
 O2_O2_224
 ---------
 Symbolic Z-matrix:
 Charge = -1 Multiplicity = 2

                         Standard orientation:
 ---------------------------------------------------------------------
 Center     Atomic      Atomic             Coordinates (Angstroms)
 Number     Number       Type             X           Y           Z
 ---------------------------------------------------------------------
      1          8           0       -0.870000   -2.270000    0.000000
      2          8           0        0.290000   -2.270000    0.000000
      3          8           0        0.290000    1.690000    0.000000
      4          8           0        0.290000    2.850000    0.000000
 ---------------------------------------------------------------------

 SCF Done:  E(ROHF) =  -299.166101415     A.U. after   15 cycles
 E2 =    -0.9585542286D+00 EUMP2 =    -0.30012465564403D+03
 CCSD(T)
 CCSD(T)= -0.30014932413D+03

 The electronic state is 2-A'.
 Alpha  occ. eigenvalues --  -20.43858 -20.43269 -20.43029 -20.42908  -1.43455
 Alpha  occ. eigenvalues --   -1.42862  -0.84213  -0.83799  -0.51838  -0.51265
 Alpha  occ. eigenvalues --   -0.49011  -0.48596  -0.47653  -0.47171  -0.17957
 Alpha  occ. eigenvalues --   -0.17435  -0.00330
 Alpha virt. eigenvalues --    0.11661   0.63867   0.64862   0.89719   0.92118
 Alpha virt. eigenvalues --    0.92795   0.93520   0.94426   0.97319   1.03551
 Alpha virt. eigenvalues --    1.04178   1.04716   1.05485   1.05734   1.07435

 Mulliken charges and spin densities:
               1          2
     1  O   -0.259056   0.251223
     2  O   -0.247614   0.255743
     3  O   -0.216178   0.255669
     4  O   -0.277151   0.237365
 Sum of Mulliken charges =  -1.00000   1.00000

 Dipole moment (field-independent basis, Debye):
    X=              0.0434    Y=             -0.0012    Z=              0.0000  Tot=              0.0434
 Quadrupole moment (field-independent basis, Debye-Ang):
   XX=            -23.5454   YY=            -49.1617   ZZ=            -23.1896
   XY=             -3.3439   XZ=              0.0000   YZ=              0.0000

 381\CCSD(T)=-300.1493241\RMSD=2.425e-09\PG=CS [SG(O4)]\\@
 Normal termination of Gaussian 16 at Sun Feb 18 03:11:03 2024.
