 Gaussian 16, Revision A.03,
 Gaussian 16:  ES64L-G16RevA.03 25-Dec-2016

 -----------------------------------------------
 #p ROCCSD(T,MaxCyc=200)/cc-pVTZ SCF(MaxCyc=200)
 -----------------------------------------------

 --------
 O2_O2_19
 --------
 Symbolic Z-matrix:
 Charge = -1 Multiplicity = 2

                         Standard orientation:
 ---------------------------------------------------------------------
 Center     Atomic      Atomic             Coordinates (Angstroms)
 Number     Number       Type             X           Y           Z
 ---------------------------------------------------------------------
      1          8           0        0.615183   -1.525183    0.000000
      2          8           0       -0.205061   -0.704939    0.000000
      3          8           0       -0.205061    0.535061   -0.000000
      4          8           0       -0.205061    1.695061   -0.000000
 ---------------------------------------------------------------------

 SCF Done:  E(ROHF) =  -298.959939646     A.U. after   20 cycles
 E2 =    -0.9430187141D+00 EUMP2 =    -0.29990295836045D+03
 CCSD(T)
 CCSD(T)= -0.29994195041D+03

 The electronic state is 2-A".
 Alpha  occ. eigenvalues --  -20.48430 -20.43937 -20.35758 -20.27832  -1.51049
 Alpha  occ. eigenvalues --   -1.36737  -1.07625  -0.68864  -0.61939  -0.56809
 Alpha  occ. eigenvalues --   -0.53004  -0.45764  -0.41094  -0.21486  -0.18573
 Alpha  occ. eigenvalues --   -0.13933  -0.08007
 Alpha virt. eigenvalues --    0.44632   0.72177   0.77502   0.90761   0.92555
 Alpha virt. eigenvalues --    0.92778   0.96988   1.00449   1.03880   1.07645
 Alpha virt. eigenvalues --    1.10011   1.12019   1.16121   1.17804   1.24971

 Mulliken charges and spin densities:
               1          2
     1  O   -0.606803   0.037871
     2  O    0.058972   0.114618
     3  O    0.011337   0.497831
     4  O   -0.463507   0.349679
 Sum of Mulliken charges =  -1.00000   1.00000

 Dipole moment (field-independent basis, Debye):
    X=             -1.0183    Y=              0.7120    Z=             -0.0000  Tot=              1.2425
 Quadrupole moment (field-independent basis, Debye-Ang):
   XX=            -24.2277   YY=            -37.4098   ZZ=            -21.7201
   XY=              3.9219   XZ=             -0.0000   YZ=              0.0000

 7158\CCSD=-299.9006976\CCSD(T)=-299.9419504\RMSD=1.996e-09\PG=CS [SG(O
 Normal termination of Gaussian 16 at Sat Feb 17 20:39:53 2024.
