 Gaussian 16, Revision A.03,
 Gaussian 16:  ES64L-G16RevA.03 25-Dec-2016

 -----------------------------------------------
 #p ROCCSD(T,MaxCyc=200)/cc-pVTZ SCF(MaxCyc=200)
 -----------------------------------------------

 ---------
 O2_O2_184
 ---------
 Symbolic Z-matrix:
 Charge = -1 Multiplicity = 2

                         Standard orientation:
 ---------------------------------------------------------------------
 Center     Atomic      Atomic             Coordinates (Angstroms)
 Number     Number       Type             X           Y           Z
 ---------------------------------------------------------------------
      1          8           0        0.615183   -2.625183    0.000000
      2          8           0       -0.205061   -1.804939    0.000000
      3          8           0       -0.205061    1.635061   -0.000000
      4          8           0       -0.205061    2.795061   -0.000000
 ---------------------------------------------------------------------

 SCF Done:  E(ROHF) =  -299.190871980     A.U. after   25 cycles
 E2 =    -0.9203728396D+00 EUMP2 =    -0.30011124481967D+03
 CCSD(T)
 CCSD(T)= -0.30014785862D+03

 The electronic state is 2-A".
 Alpha  occ. eigenvalues --  -20.60716 -20.60262 -20.24846 -20.24768  -1.57547
 Alpha  occ. eigenvalues --   -1.27896  -0.96157  -0.70971  -0.66295  -0.62711
 Alpha  occ. eigenvalues --   -0.55136  -0.39366  -0.35819  -0.33881  -0.32356
 Alpha  occ. eigenvalues --   -0.06041  -0.01998
 Alpha virt. eigenvalues --    0.17281   0.55245   0.71355   0.82541   0.82997
 Alpha virt. eigenvalues --    0.86250   0.92329   0.93958   0.96635   0.99854
 Alpha virt. eigenvalues --    1.02842   1.04975   1.13345   1.13616   1.15776

 Mulliken charges and spin densities:
               1          2
     1  O   -0.049085   0.000075
     2  O    0.047684   0.000118
     3  O   -0.501522   0.498586
     4  O   -0.497078   0.501220
 Sum of Mulliken charges =  -1.00000   1.00000

 Dipole moment (field-independent basis, Debye):
    X=              0.8010    Y=            -10.2723    Z=              0.0000  Tot=             10.3035
 Quadrupole moment (field-independent basis, Debye-Ang):
   XX=            -23.4531   YY=            -50.6000   ZZ=            -20.6027
   XY=              2.5532   XZ=             -0.0000   YZ=              0.0000

 325\CCSD=-300.1121016\CCSD(T)=-300.1478586\RMSD=6.265e-09\PG=CS [SG(O4
 Normal termination of Gaussian 16 at Sun Feb 18 01:59:20 2024.
