 Gaussian 16, Revision A.03,
 Gaussian 16:  ES64L-G16RevA.03 25-Dec-2016

 -----------------------------------------------
 #p ROCCSD(T,MaxCyc=200)/cc-pVTZ SCF(MaxCyc=200)
 -----------------------------------------------

 --------
 O2_O2_86
 --------
 Symbolic Z-matrix:
 Charge = -1 Multiplicity = 2

                         Standard orientation:
 ---------------------------------------------------------------------
 Center     Atomic      Atomic             Coordinates (Angstroms)
 Number     Number       Type             X           Y           Z
 ---------------------------------------------------------------------
      1          8           0       -0.870000   -1.350000    0.000000
      2          8           0        0.290000   -1.350000    0.000000
      3          8           0        0.290000    0.770000    0.000000
      4          8           0        0.290000    1.930000    0.000000
 ---------------------------------------------------------------------

 SCF Done:  E(ROHF) =  -299.188919180     A.U. after   25 cycles
 E2 =    -0.9429891077D+00 EUMP2 =    -0.30013190828797D+03
 CCSD(T)
 CCSD(T)= -0.30018813493D+03

 The electronic state is 2-A".
 Alpha  occ. eigenvalues --  -20.50766 -20.49829 -20.29234 -20.29154  -1.47654
 Alpha  occ. eigenvalues --   -1.31989  -0.87082  -0.75541  -0.56740  -0.53530
 Alpha  occ. eigenvalues --   -0.47300  -0.43337  -0.39123  -0.35259  -0.22916
 Alpha  occ. eigenvalues --   -0.10057  -0.04785
 Alpha virt. eigenvalues --    0.26488   0.62434   0.75895   0.88972   0.91188
 Alpha virt. eigenvalues --    0.92171   0.97943   1.00384   1.00675   1.02267
 Alpha virt. eigenvalues --    1.06034   1.08161   1.14009   1.19622   1.21194

 Mulliken charges and spin densities:
               1          2
     1  O   -0.097541   0.000280
     2  O   -0.030656   0.000704
     3  O   -0.423819   0.464504
     4  O   -0.447983   0.534513
 Sum of Mulliken charges =  -1.00000   1.00000

 Dipole moment (field-independent basis, Debye):
    X=             -0.7770    Y=             -4.5289    Z=              0.0000  Tot=              4.5951
 Quadrupole moment (field-independent basis, Debye-Ang):
   XX=            -23.9832   YY=            -33.8324   ZZ=            -22.2395
   XY=             -2.2368   XZ=              0.0000   YZ=              0.0000

 19\CCSD(T)=-300.1881349\RMSD=6.672e-09\PG=CS [SG(O4)]\\@
 Normal termination of Gaussian 16 at Sat Feb 17 22:51:10 2024.
