 Gaussian 16, Revision A.03,
 Gaussian 16:  ES64L-G16RevA.03 25-Dec-2016

 -----------------------------------------------
 #p ROCCSD(T,MaxCyc=200)/cc-pVTZ SCF(MaxCyc=200)
 -----------------------------------------------

 ---------
 O2_O2_254
 ---------
 Symbolic Z-matrix:
 Charge = -1 Multiplicity = 2

                         Standard orientation:
 ---------------------------------------------------------------------
 Center     Atomic      Atomic             Coordinates (Angstroms)
 Number     Number       Type             X           Y           Z
 ---------------------------------------------------------------------
      1          8           0       -0.870000   -2.470000    0.000000
      2          8           0        0.290000   -2.470000    0.000000
      3          8           0        0.290000    1.890000    0.000000
      4          8           0        0.290000    3.050000    0.000000
 ---------------------------------------------------------------------

 SCF Done:  E(ROHF) =  -299.165166223     A.U. after   15 cycles
 E2 =    -0.9590084038D+00 EUMP2 =    -0.30012417462679D+03
 CCSD(T)
 CCSD(T)= -0.30014853289D+03

 The electronic state is 2-A'.
 Alpha  occ. eigenvalues --  -20.44172 -20.43687 -20.43465 -20.43350  -1.43830
 Alpha  occ. eigenvalues --   -1.43315  -0.84611  -0.84241  -0.52211  -0.51711
 Alpha  occ. eigenvalues --   -0.49395  -0.49032  -0.48055  -0.47652  -0.18336
 Alpha  occ. eigenvalues --   -0.17877  -0.00232
 Alpha virt. eigenvalues --    0.10666   0.63937   0.64374   0.91222   0.91784
 Alpha virt. eigenvalues --    0.92533   0.92996   0.94004   0.95089   1.03871
 Alpha virt. eigenvalues --    1.03892   1.04171   1.04714   1.05301   1.05878

 Mulliken charges and spin densities:
               1          2
     1  O   -0.257151   0.251430
     2  O   -0.248692   0.254490
     3  O   -0.220579   0.255105
     4  O   -0.273579   0.238975
 Sum of Mulliken charges =  -1.00000   1.00000

 Dipole moment (field-independent basis, Debye):
    X=              0.0357    Y=              0.0110    Z=              0.0000  Tot=              0.0374
 Quadrupole moment (field-independent basis, Debye-Ang):
   XX=            -23.5263   YY=            -53.6540   ZZ=            -23.1873
   XY=             -3.5986   XZ=              0.0000   YZ=              0.0000

 597\CCSD(T)=-300.1485329\RMSD=5.994e-09\PG=CS [SG(O4)]\\@
 Normal termination of Gaussian 16 at Sun Feb 18 04:16:24 2024.
