 Gaussian 16, Revision A.03,
 Gaussian 16:  ES64L-G16RevA.03 25-Dec-2016

 -----------------------------------------------
 #p ROCCSD(T,MaxCyc=200)/cc-pVTZ SCF(MaxCyc=200)
 -----------------------------------------------

 ---------
 O2_O2_114
 ---------
 Symbolic Z-matrix:
 Charge = -1 Multiplicity = 2

                         Standard orientation:
 ---------------------------------------------------------------------
 Center     Atomic      Atomic             Coordinates (Angstroms)
 Number     Number       Type             X           Y           Z
 ---------------------------------------------------------------------
      1          8           0        0.000000    0.000000    2.420000
      2          8           0        0.000000    0.000000    1.260000
      3          8           0        0.000000    0.000000   -1.260000
      4          8           0        0.000000    0.000000   -2.420000
 ---------------------------------------------------------------------

 SCF Done:  E(ROHF) =  -299.169447701     A.U. after   12 cycles
 E2 =    -0.9574157522D+00 EUMP2 =    -0.30012686345333D+03
 CCSD(T)
 CCSD(T)= -0.30015412171D+03

 Unable to determine electronic state:  an orbital has unidentified symmetry.
 Alpha  occ. eigenvalues --  -20.42226 -20.42224 -20.41037 -20.41036  -1.41693
 Alpha  occ. eigenvalues --   -1.41511  -0.83399  -0.81239  -0.50191  -0.49765
 Alpha  occ. eigenvalues --   -0.48787  -0.46409  -0.45198  -0.45072  -0.16687
 Alpha  occ. eigenvalues --   -0.15385  -0.01085
 Alpha virt. eigenvalues --    0.16189   0.67249   0.72058   0.91069   0.91626
 Alpha virt. eigenvalues --    0.92964   0.95263   0.95969   1.01485   1.01952
 Alpha virt. eigenvalues --    1.04854   1.11194   1.11890   1.13464   1.15566

 Mulliken charges and spin densities:
               1          2
     1  O   -0.310714   0.236646
     2  O   -0.189286   0.263354
     3  O   -0.189286   0.263354
     4  O   -0.310714   0.236646
 Sum of Mulliken charges =  -1.00000   1.00000

 Dipole moment (field-independent basis, Debye):
    X=             -0.0000    Y=             -0.0000    Z=              0.0000  Tot=              0.0000
 Quadrupole moment (field-independent basis, Debye-Ang):
   XX=            -20.7669   YY=            -23.1995   ZZ=            -44.6032
   XY=              0.0000   XZ=              0.0000   YZ=              0.0000

 Normal termination of Gaussian 16 at Sat Feb 17 23:50:38 2024.
