 Gaussian 16, Revision A.03,
 Gaussian 16:  ES64L-G16RevA.03 25-Dec-2016

 -----------------------------------------------
 #p ROCCSD(T,MaxCyc=200)/cc-pVTZ SCF(MaxCyc=200)
 -----------------------------------------------

 ---------
 O2_O2_146
 ---------
 Symbolic Z-matrix:
 Charge = -1 Multiplicity = 2

                         Standard orientation:
 ---------------------------------------------------------------------
 Center     Atomic      Atomic             Coordinates (Angstroms)
 Number     Number       Type             X           Y           Z
 ---------------------------------------------------------------------
      1          8           0       -0.870000   -1.750000    0.000000
      2          8           0        0.290000   -1.750000    0.000000
      3          8           0        0.290000    1.170000    0.000000
      4          8           0        0.290000    2.330000    0.000000
 ---------------------------------------------------------------------

 SCF Done:  E(ROHF) =  -299.172548165     A.U. after   15 cycles
 E2 =    -0.9573058538D+00 EUMP2 =    -0.30012985401908D+03
 CCSD(T)
 CCSD(T)= -0.30015711494D+03

 The electronic state is 2-A'.
 Alpha  occ. eigenvalues --  -20.43103 -20.41942 -20.41406 -20.41291  -1.42344
 Alpha  occ. eigenvalues --   -1.41173  -0.83018  -0.82163  -0.50747  -0.49598
 Alpha  occ. eigenvalues --   -0.48308  -0.47003  -0.46329  -0.44944  -0.16834
 Alpha  occ. eigenvalues --   -0.15792  -0.01104
 Alpha virt. eigenvalues --    0.15673   0.64782   0.67369   0.87935   0.91968
 Alpha virt. eigenvalues --    0.92194   0.95953   0.95967   1.00300   1.03788
 Alpha virt. eigenvalues --    1.05016   1.05456   1.07459   1.08274   1.12959

 Mulliken charges and spin densities:
               1          2
     1  O   -0.272044   0.248158
     2  O   -0.242185   0.266743
     3  O   -0.196345   0.255395
     4  O   -0.289426   0.229703
 Sum of Mulliken charges =  -1.00000   1.00000

 Dipole moment (field-independent basis, Debye):
    X=              0.1049    Y=              0.0198    Z=              0.0000  Tot=              0.1068
 Quadrupole moment (field-independent basis, Debye-Ang):
   XX=            -23.6547   YY=            -39.3119   ZZ=            -23.1990
   XY=             -2.6861   XZ=              0.0000   YZ=              0.0000

 2\CCSD(T)=-300.1571149\RMSD=9.979e-09\PG=CS [SG(O4)]\\@
 Normal termination of Gaussian 16 at Sun Feb 18 00:47:43 2024.
