 Gaussian 16, Revision A.03,
 Gaussian 16:  ES64L-G16RevA.03 25-Dec-2016

 -----------------------------------------------
 #p ROCCSD(T,MaxCyc=200)/cc-pVTZ SCF(MaxCyc=200)
 -----------------------------------------------

 --------
 O2_O2_33
 --------
 Symbolic Z-matrix:
 Charge = -1 Multiplicity = 2

                         Standard orientation:
 ---------------------------------------------------------------------
 Center     Atomic      Atomic             Coordinates (Angstroms)
 Number     Number       Type             X           Y           Z
 ---------------------------------------------------------------------
      1          8           0        0.000000    0.000000    1.880000
      2          8           0        0.000000    0.000000    0.720000
      3          8           0        0.000000    0.000000   -0.720000
      4          8           0        0.000000    0.000000   -1.880000
 ---------------------------------------------------------------------

 SCF Done:  E(ROHF) =  -298.948784634     A.U. after   12 cycles
 E2 =    -0.1128629943D+01 EUMP2 =    -0.30007741457658D+03
 CCSD(T)
 CCSD(T)= -0.30004996007D+03

 Unable to determine electronic state:  an orbital has unidentified symmetry.
 Alpha  occ. eigenvalues --  -20.45635 -20.45624 -20.34889 -20.34889  -1.44244
 Alpha  occ. eigenvalues --   -1.39309  -0.99636  -0.72034  -0.55807  -0.54454
 Alpha  occ. eigenvalues --   -0.48399  -0.48237  -0.39288  -0.24423  -0.20345
 Alpha  occ. eigenvalues --   -0.11675  -0.06345
 Alpha virt. eigenvalues --    0.28731   0.71538   0.72882   0.91899   0.93727
 Alpha virt. eigenvalues --    0.96070   0.98827   0.99920   1.00698   1.07308
 Alpha virt. eigenvalues --    1.09776   1.12087   1.21083   1.23713   1.26325

 Mulliken charges and spin densities:
               1          2
     1  O   -0.454592   0.169197
     2  O   -0.045408   0.330803
     3  O   -0.045408   0.330803
     4  O   -0.454592   0.169197
 Sum of Mulliken charges =  -1.00000   1.00000

 Dipole moment (field-independent basis, Debye):
    X=             -0.0000    Y=             -0.0000    Z=             -0.0000  Tot=              0.0000
 Quadrupole moment (field-independent basis, Debye-Ang):
   XX=            -22.3256   YY=            -21.7628   ZZ=            -40.7941
   XY=              0.0000   XZ=              0.0000   YZ=              0.0000

 46\PMP2-0=-300.0774146\MP4SDQ=-299.9793587\CCSD=-299.97906\CCSD(T)=-30
 Normal termination of Gaussian 16 at Sat Feb 17 21:03:49 2024.
