 Gaussian 16, Revision A.03,
 Gaussian 16:  ES64L-G16RevA.03 25-Dec-2016

 -----------------------------------------------
 #p ROCCSD(T,MaxCyc=200)/cc-pVTZ SCF(MaxCyc=200)
 -----------------------------------------------

 ---------
 O2_O2_109
 ---------
 Symbolic Z-matrix:
 Charge = -1 Multiplicity = 2

                         Standard orientation:
 ---------------------------------------------------------------------
 Center     Atomic      Atomic             Coordinates (Angstroms)
 Number     Number       Type             X           Y           Z
 ---------------------------------------------------------------------
      1          8           0        0.615183   -2.125183    0.000000
      2          8           0       -0.205061   -1.304939    0.000000
      3          8           0       -0.205061    1.135062   -0.000000
      4          8           0       -0.205061    2.295060   -0.000000
 ---------------------------------------------------------------------

 SCF Done:  E(ROHF) =  -299.166093150     A.U. after   23 cycles
 E2 =    -0.9572055156D+00 EUMP2 =    -0.30012329866526D+03
 CCSD(T)
 CCSD(T)= -0.30015127740D+03

 The electronic state is 2-A".
 Alpha  occ. eigenvalues --  -20.41790 -20.41503 -20.40863 -20.40246  -1.41331
 Alpha  occ. eigenvalues --   -1.40903  -0.83114  -0.80705  -0.50167  -0.49297
 Alpha  occ. eigenvalues --   -0.48034  -0.45999  -0.44694  -0.44541  -0.15917
 Alpha  occ. eigenvalues --   -0.15097  -0.01053
 Alpha virt. eigenvalues --    0.17013   0.66987   0.71708   0.91102   0.91162
 Alpha virt. eigenvalues --    0.94639   0.95920   0.97483   1.01838   1.02874
 Alpha virt. eigenvalues --    1.06776   1.07950   1.12886   1.13315   1.15555

 Mulliken charges and spin densities:
               1          2
     1  O   -0.296679   0.236580
     2  O   -0.196886   0.256800
     3  O   -0.187991   0.267555
     4  O   -0.318444   0.239066
 Sum of Mulliken charges =  -1.00000   1.00000

 Dipole moment (field-independent basis, Debye):
    X=             -0.1603    Y=             -0.2195    Z=             -0.0000  Tot=              0.2718
 Quadrupole moment (field-independent basis, Debye-Ang):
   XX=            -24.0914   YY=            -41.6446   ZZ=            -20.7686
   XY=              2.7623   XZ=             -0.0000   YZ=              0.0000

 31052\CCSD=-300.109834\CCSD(T)=-300.1512774\RMSD=7.701e-09\PG=CS [SG(O
 Normal termination of Gaussian 16 at Sat Feb 17 23:41:53 2024.
