 Gaussian 16, Revision A.03,
 Gaussian 16:  ES64L-G16RevA.03 25-Dec-2016

 -----------------------------------------------
 #p ROCCSD(T,MaxCyc=200)/cc-pVTZ SCF(MaxCyc=200)
 -----------------------------------------------

 ---------
 O2_O2_162
 ---------
 Symbolic Z-matrix:
 Charge = -1 Multiplicity = 2

                         Standard orientation:
 ---------------------------------------------------------------------
 Center     Atomic      Atomic             Coordinates (Angstroms)
 Number     Number       Type             X           Y           Z
 ---------------------------------------------------------------------
      1          8           0        0.000000    0.000000    2.740000
      2          8           0        0.000000    0.000000    1.580000
      3          8           0        0.000000    0.000000   -1.580000
      4          8           0        0.000000    0.000000   -2.740000
 ---------------------------------------------------------------------

 SCF Done:  E(ROHF) =  -299.166422867     A.U. after   12 cycles
 E2 =    -0.9583619701D+00 EUMP2 =    -0.30012478483714D+03
 CCSD(T)
 CCSD(T)= -0.30015028960D+03

 Unable to determine electronic state:  an orbital has unidentified symmetry.
 Alpha  occ. eigenvalues --  -20.43066 -20.43065 -20.42300 -20.42300  -1.42640
 Alpha  occ. eigenvalues --   -1.42602  -0.83619  -0.83085  -0.51042  -0.50949
 Alpha  occ. eigenvalues --   -0.48592  -0.47571  -0.47181  -0.46594  -0.17275
 Alpha  occ. eigenvalues --   -0.16908  -0.00396
 Alpha virt. eigenvalues --    0.13025   0.60747   0.71571   0.88590   0.91770
 Alpha virt. eigenvalues --    0.92523   0.93624   0.94391   1.02202   1.02379
 Alpha virt. eigenvalues --    1.02663   1.06138   1.08894   1.09162   1.11828

 Mulliken charges and spin densities:
               1          2
     1  O   -0.287362   0.238796
     2  O   -0.212638   0.261204
     3  O   -0.212638   0.261204
     4  O   -0.287362   0.238796
 Sum of Mulliken charges =  -1.00000   1.00000

 Dipole moment (field-independent basis, Debye):
    X=             -0.0000    Y=             -0.0000    Z=              0.0000  Tot=              0.0000
 Quadrupole moment (field-independent basis, Debye-Ang):
   XX=            -20.7104   YY=            -23.1936   ZZ=            -50.3446
   XY=              0.0000   XZ=              0.0000   YZ=              0.0000

 Normal termination of Gaussian 16 at Sun Feb 18 01:17:24 2024.
