 Gaussian 16, Revision A.03,
 Gaussian 16:  ES64L-G16RevA.03 25-Dec-2016

 -----------------------------------------------
 #p ROCCSD(T,MaxCyc=200)/cc-pVTZ SCF(MaxCyc=200)
 -----------------------------------------------

 --------
 O2_O2_17
 --------
 Symbolic Z-matrix:
 Charge = -1 Multiplicity = 2

                         Standard orientation:
 ---------------------------------------------------------------------
 Center     Atomic      Atomic             Coordinates (Angstroms)
 Number     Number       Type             X           Y           Z
 ---------------------------------------------------------------------
      1          8           0       -0.870000   -0.890000    0.000000
      2          8           0        0.290000   -0.890000    0.000000
      3          8           0        0.290000    0.310000    0.000000
      4          8           0        0.290000    1.470000    0.000000
 ---------------------------------------------------------------------

 SCF Done:  E(ROHF) =  -298.874042013     A.U. after   18 cycles
 E2 =    -0.9233954911D+00 EUMP2 =    -0.29979743750361D+03
 CCSD(T)
 CCSD(T)= -0.29983767331D+03

 The electronic state is 2-A".
 Alpha  occ. eigenvalues --  -20.49472 -20.41455 -20.37308 -20.20079  -1.57472
 Alpha  occ. eigenvalues --   -1.35197  -0.99950  -0.74813  -0.64034  -0.57662
 Alpha  occ. eigenvalues --   -0.50290  -0.43853  -0.40481  -0.19270  -0.18169
 Alpha  occ. eigenvalues --   -0.08500  -0.07838
 Alpha virt. eigenvalues --    0.48036   0.67996   0.72049   0.85962   0.91439
 Alpha virt. eigenvalues --    0.95776   0.98546   1.00469   1.04259   1.10798
 Alpha virt. eigenvalues --    1.12046   1.13086   1.16284   1.21874   1.27567

 Mulliken charges and spin densities:
               1          2
     1  O   -0.738160   0.012511
     2  O    0.066665   0.093003
     3  O    0.103589   0.502771
     4  O   -0.432094   0.391715
 Sum of Mulliken charges =  -1.00000   1.00000

 Dipole moment (field-independent basis, Debye):
    X=              2.6560    Y=              0.1877    Z=              0.0000  Tot=              2.6626
 Quadrupole moment (field-independent basis, Debye-Ang):
   XX=            -26.1361   YY=            -31.0250   ZZ=            -21.6830
   XY=             -4.1954   XZ=              0.0000   YZ=              0.0000

 CCSD(T)=-299.8376733\RMSD=2.627e-09\PG=CS [SG(O4)]\\@
 Normal termination of Gaussian 16 at Sat Feb 17 20:36:40 2024.
