 Gaussian 16, Revision A.03,
 Gaussian 16:  ES64L-G16RevA.03 25-Dec-2016

 -----------------------------------------------
 #p ROCCSD(T,MaxCyc=200)/cc-pVTZ SCF(MaxCyc=200)
 -----------------------------------------------

 ---------
 O2_O2_101
 ---------
 Symbolic Z-matrix:
 Charge = -1 Multiplicity = 2

                         Standard orientation:
 ---------------------------------------------------------------------
 Center     Atomic      Atomic             Coordinates (Angstroms)
 Number     Number       Type             X           Y           Z
 ---------------------------------------------------------------------
      1          8           0       -0.870000   -1.450000    0.000000
      2          8           0        0.290000   -1.450000    0.000000
      3          8           0        0.290000    0.870000    0.000000
      4          8           0        0.290000    2.030000    0.000000
 ---------------------------------------------------------------------

 SCF Done:  E(ROHF) =  -299.191177769     A.U. after   30 cycles
 E2 =    -0.9340707381D+00 EUMP2 =    -0.30012524850727D+03
 CCSD(T)
 CCSD(T)= -0.30018458764D+03

 The electronic state is 2-A".
 Alpha  occ. eigenvalues --  -20.53294 -20.51547 -20.28354 -20.27895  -1.50037
 Alpha  occ. eigenvalues --   -1.30956  -0.88651  -0.73819  -0.58860  -0.55348
 Alpha  occ. eigenvalues --   -0.48072  -0.42319  -0.37623  -0.36526  -0.24798
 Alpha  occ. eigenvalues --   -0.08973  -0.03870
 Alpha virt. eigenvalues --    0.24278   0.65101   0.71805   0.87909   0.88910
 Alpha virt. eigenvalues --    0.93714   0.95743   1.00834   1.01707   1.03129
 Alpha virt. eigenvalues --    1.07924   1.09164   1.09617   1.12486   1.17311

 Mulliken charges and spin densities:
               1          2
     1  O   -0.474195   0.480998
     2  O   -0.434353   0.518876
     3  O    0.070162   0.000092
     4  O   -0.161614   0.000034
 Sum of Mulliken charges =  -1.00000   1.00000

 Dipole moment (field-independent basis, Debye):
    X=              1.1937    Y=              4.9700    Z=              0.0000  Tot=              5.1114
 Quadrupole moment (field-independent basis, Debye-Ang):
   XX=            -24.4464   YY=            -35.8464   ZZ=            -22.2515
   XY=             -2.3281   XZ=              0.0000   YZ=              0.0000

 53\CCSD(T)=-300.1845876\RMSD=5.897e-09\PG=CS [SG(O4)]\\@
 Normal termination of Gaussian 16 at Sat Feb 17 23:26:09 2024.
