 Gaussian 16, Revision A.03,
 Gaussian 16:  ES64L-G16RevA.03 25-Dec-2016

 -----------------------------------------------
 #p ROCCSD(T,MaxCyc=200)/cc-pVTZ SCF(MaxCyc=200)
 -----------------------------------------------

 ---------
 O2_O2_261
 ---------
 Symbolic Z-matrix:
 Charge = -1 Multiplicity = 2

                         Standard orientation:
 ---------------------------------------------------------------------
 Center     Atomic      Atomic             Coordinates (Angstroms)
 Number     Number       Type             X           Y           Z
 ---------------------------------------------------------------------
      1          8           0        0.000000    0.000000    3.400000
      2          8           0        0.000000    0.000000    2.240000
      3          8           0        0.000000    0.000000   -2.240000
      4          8           0        0.000000    0.000000   -3.400000
 ---------------------------------------------------------------------

 SCF Done:  E(ROHF) =  -299.163841627     A.U. after   13 cycles
 E2 =    -0.9596426429D+00 EUMP2 =    -0.30012348426999D+03
 CCSD(T)
 CCSD(T)= -0.30014698905D+03

 Unable to determine electronic state:  an orbital has unidentified symmetry.
 Alpha  occ. eigenvalues --  -20.44296 -20.44296 -20.43901 -20.43901  -1.44038
 Alpha  occ. eigenvalues --   -1.44034  -0.84879  -0.84819  -0.52413  -0.52409
 Alpha  occ. eigenvalues --   -0.49639  -0.49577  -0.48459  -0.48237  -0.18546
 Alpha  occ. eigenvalues --   -0.18530  -0.00087
 Alpha virt. eigenvalues --    0.09583   0.61925   0.65892   0.91463   0.91550
 Alpha virt. eigenvalues --    0.92269   0.92350   0.92388   0.95008   1.03472
 Alpha virt. eigenvalues --    1.03794   1.03849   1.04073   1.04162   1.06034

 Mulliken charges and spin densities:
               1          2
     1  O   -0.273046   0.242782
     2  O   -0.226954   0.257218
     3  O   -0.226954   0.257218
     4  O   -0.273046   0.242782
 Sum of Mulliken charges =  -1.00000   1.00000

 Dipole moment (field-independent basis, Debye):
    X=             -0.0000    Y=             -0.0000    Z=              0.0000  Tot=              0.0000
 Quadrupole moment (field-independent basis, Debye-Ang):
   XX=            -23.1852   YY=            -20.6712   ZZ=            -65.6023
   XY=              0.0000   XZ=              0.0000   YZ=              0.0000

 8416\PMP2-0=-300.1234843\MP4SDQ=-300.1088999\CCSD=-300.105911\CCSD(T)=
 Normal termination of Gaussian 16 at Sun Feb 18 04:30:10 2024.
