 Gaussian 16, Revision A.03,
 Gaussian 16:  ES64L-G16RevA.03 25-Dec-2016

 -----------------------------------------------
 #p ROCCSD(T,MaxCyc=200)/cc-pVTZ SCF(MaxCyc=200)
 -----------------------------------------------

 ---------
 O2_O2_281
 ---------
 Symbolic Z-matrix:
 Charge = -1 Multiplicity = 2

                         Standard orientation:
 ---------------------------------------------------------------------
 Center     Atomic      Atomic             Coordinates (Angstroms)
 Number     Number       Type             X           Y           Z
 ---------------------------------------------------------------------
      1          8           0       -0.870000   -2.650000    0.000000
      2          8           0        0.290000   -2.650000    0.000000
      3          8           0        0.290000    2.070000    0.000000
      4          8           0        0.290000    3.230000    0.000000
 ---------------------------------------------------------------------

 SCF Done:  E(ROHF) =  -299.164721209     A.U. after   16 cycles
 E2 =    -0.9593675034D+00 EUMP2 =    -0.30012408871250D+03
 CCSD(T)
 CCSD(T)= -0.30014824616D+03

 The electronic state is 2-A'.
 Alpha  occ. eigenvalues --  -20.44433 -20.44014 -20.43823 -20.43713  -1.44128
 Alpha  occ. eigenvalues --   -1.43681  -0.84923  -0.84598  -0.52508  -0.52073
 Alpha  occ. eigenvalues --   -0.49705  -0.49386  -0.48369  -0.48024  -0.18637
 Alpha  occ. eigenvalues --   -0.18236  -0.00182
 Alpha virt. eigenvalues --    0.09922   0.63769   0.63979   0.91468   0.91719
 Alpha virt. eigenvalues --    0.92256   0.92631   0.93666   0.93927   1.03576
 Alpha virt. eigenvalues --    1.03809   1.03891   1.04280   1.04889   1.05162

 Mulliken charges and spin densities:
               1          2
     1  O   -0.255862   0.251385
     2  O   -0.249167   0.253660
     3  O   -0.224074   0.254688
     4  O   -0.270897   0.240267
 Sum of Mulliken charges =  -1.00000   1.00000

 Dipole moment (field-independent basis, Debye):
    X=              0.0300    Y=              0.0152    Z=              0.0000  Tot=              0.0336
 Quadrupole moment (field-independent basis, Debye-Ang):
   XX=            -23.5146   YY=            -58.0191   ZZ=            -23.1857
   XY=             -3.8304   XZ=              0.0000   YZ=              0.0000

 86\CCSD(T)=-300.1482462\RMSD=5.123e-09\PG=CS [SG(O4)]\\@
 Normal termination of Gaussian 16 at Sun Feb 18 05:21:56 2024.
