 Gaussian 16, Revision A.03,
 Gaussian 16:  ES64L-G16RevA.03 25-Dec-2016

 -----------------------------------------------
 #p ROCCSD(T,MaxCyc=200)/cc-pVTZ SCF(MaxCyc=200)
 -----------------------------------------------

 --------
 O2_O2_66
 --------
 Symbolic Z-matrix:
 Charge = -1 Multiplicity = 2

                         Standard orientation:
 ---------------------------------------------------------------------
 Center     Atomic      Atomic             Coordinates (Angstroms)
 Number     Number       Type             X           Y           Z
 ---------------------------------------------------------------------
      1          8           0        0.000000    0.000000    2.100000
      2          8           0        0.000000    0.000000    0.940000
      3          8           0        0.000000    0.000000   -0.940000
      4          8           0        0.000000    0.000000   -2.100000
 ---------------------------------------------------------------------

 SCF Done:  E(ROHF) =  -299.051521452     A.U. after   13 cycles
 E2 =    -0.1207414819D+01 EUMP2 =    -0.30025893627027D+03
 CCSD(T)
 CCSD(T)= -0.30018436464D+03

 Unable to determine electronic state:  an orbital has unidentified symmetry.
 Alpha  occ. eigenvalues --  -20.45801 -20.45799 -20.39379 -20.39378  -1.42722
 Alpha  occ. eigenvalues --   -1.41595  -0.87941  -0.78300  -0.53133  -0.52232
 Alpha  occ. eigenvalues --   -0.50995  -0.45945  -0.42443  -0.39586  -0.19481
 Alpha  occ. eigenvalues --   -0.15669  -0.02752
 Alpha virt. eigenvalues --    0.22069   0.70553   0.71772   0.90702   0.92603
 Alpha virt. eigenvalues --    0.96629   0.97814   0.99810   1.02806   1.05444
 Alpha virt. eigenvalues --    1.05624   1.12017   1.12672   1.20662   1.21744

 Mulliken charges and spin densities:
               1          2
     1  O   -0.388190   0.193518
     2  O   -0.111810   0.306482
     3  O   -0.111810   0.306482
     4  O   -0.388190   0.193518
 Sum of Mulliken charges =  -1.00000   1.00000

 Dipole moment (field-independent basis, Debye):
    X=             -0.0000    Y=             -0.0000    Z=              0.0000  Tot=              0.0000
 Quadrupole moment (field-independent basis, Debye-Ang):
   XX=            -22.5358   YY=            -21.9783   ZZ=            -41.0272
   XY=              0.0000   XZ=              0.0000   YZ=              0.0000

 215\PMP2-0=-300.2589363\MP4SDQ=-300.0412961\CCSD=-300.0988446\CCSD(T)=
 Normal termination of Gaussian 16 at Sat Feb 17 22:10:48 2024.
