 Gaussian 16, Revision A.03,
 Gaussian 16:  ES64L-G16RevA.03 25-Dec-2016

 -----------------------------------------------
 #p ROCCSD(T,MaxCyc=200)/cc-pVTZ SCF(MaxCyc=200)
 -----------------------------------------------

 --------
 O2_O2_60
 --------
 Symbolic Z-matrix:
 Charge = -1 Multiplicity = 2

                         Standard orientation:
 ---------------------------------------------------------------------
 Center     Atomic      Atomic             Coordinates (Angstroms)
 Number     Number       Type             X           Y           Z
 ---------------------------------------------------------------------
      1          8           0        0.000000    0.000000    2.060000
      2          8           0        0.000000    0.000000    0.900000
      3          8           0        0.000000    0.000000   -0.900000
      4          8           0        0.000000    0.000000   -2.060000
 ---------------------------------------------------------------------

 SCF Done:  E(ROHF) =  -299.048734231     A.U. after   13 cycles
 E2 =    -0.1190116549D+01 EUMP2 =    -0.30023885077972D+03
 CCSD(T)
 CCSD(T)= -0.30017530163D+03

 Unable to determine electronic state:  an orbital has unidentified symmetry.
 Alpha  occ. eigenvalues --  -20.45750 -20.45748 -20.38786 -20.38786  -1.42727
 Alpha  occ. eigenvalues --   -1.41286  -0.89113  -0.77416  -0.53275  -0.52684
 Alpha  occ. eigenvalues --   -0.50621  -0.46085  -0.42003  -0.37897  -0.19570
 Alpha  occ. eigenvalues --   -0.15122  -0.03236
 Alpha virt. eigenvalues --    0.23036   0.70854   0.71839   0.90994   0.92905
 Alpha virt. eigenvalues --    0.96959   0.98132   0.99926   1.03477   1.05345
 Alpha virt. eigenvalues --    1.06144   1.12529   1.12777   1.21347   1.23635

 Mulliken charges and spin densities:
               1          2
     1  O   -0.398392   0.189491
     2  O   -0.101608   0.310509
     3  O   -0.101608   0.310509
     4  O   -0.398392   0.189491
 Sum of Mulliken charges =  -1.00000   1.00000

 Dipole moment (field-independent basis, Debye):
    X=             -0.0000    Y=             -0.0000    Z=             -0.0000  Tot=              0.0000
 Quadrupole moment (field-independent basis, Debye-Ang):
   XX=            -21.9651   YY=            -22.5200   ZZ=            -40.7800
   XY=              0.0000   XZ=              0.0000   YZ=              0.0000

 42\PMP2-0=-300.2388508\MP4SDQ=-300.0505894\CCSD=-300.0924381\CCSD(T)=-
 Normal termination of Gaussian 16 at Sat Feb 17 21:57:21 2024.
