 Gaussian 16, Revision A.03,
 Gaussian 16:  ES64L-G16RevA.03 25-Dec-2016

 -----------------------------------------------
 #p ROCCSD(T,MaxCyc=200)/cc-pVTZ SCF(MaxCyc=200)
 -----------------------------------------------

 ---------
 O2_O2_152
 ---------
 Symbolic Z-matrix:
 Charge = -1 Multiplicity = 2

                         Standard orientation:
 ---------------------------------------------------------------------
 Center     Atomic      Atomic             Coordinates (Angstroms)
 Number     Number       Type             X           Y           Z
 ---------------------------------------------------------------------
      1          8           0       -0.870000   -1.790000    0.000000
      2          8           0        0.290000   -1.790000    0.000000
      3          8           0        0.290000    1.210000    0.000000
      4          8           0        0.290000    2.370000    0.000000
 ---------------------------------------------------------------------

 SCF Done:  E(ROHF) =  -299.171844731     A.U. after   15 cycles
 E2 =    -0.9573834282D+00 EUMP2 =    -0.30012922815872D+03
 CCSD(T)
 CCSD(T)= -0.30015624585D+03

 The electronic state is 2-A'.
 Alpha  occ. eigenvalues --  -20.43149 -20.42054 -20.41581 -20.41464  -1.42430
 Alpha  occ. eigenvalues --   -1.41349  -0.83106  -0.82332  -0.50830  -0.49774
 Alpha  occ. eigenvalues --   -0.48298  -0.47164  -0.46444  -0.45224  -0.16920
 Alpha  occ. eigenvalues --   -0.15965  -0.00997
 Alpha virt. eigenvalues --    0.15258   0.64506   0.66992   0.87559   0.92131
 Alpha virt. eigenvalues --    0.92195   0.95731   0.95822   1.00252   1.04100
 Alpha virt. eigenvalues --    1.04901   1.05281   1.07241   1.07830   1.12889

 Mulliken charges and spin densities:
               1          2
     1  O   -0.270275   0.248603
     2  O   -0.242572   0.265005
     3  O   -0.199146   0.255754
     4  O   -0.288007   0.230637
 Sum of Mulliken charges =  -1.00000   1.00000

 Dipole moment (field-independent basis, Debye):
    X=              0.0955    Y=              0.0091    Z=              0.0000  Tot=              0.0960
 Quadrupole moment (field-independent basis, Debye-Ang):
   XX=            -23.6420   YY=            -39.9674   ZZ=            -23.1981
   XY=             -2.7365   XZ=              0.0000   YZ=              0.0000

 7\CCSD(T)=-300.1562459\RMSD=7.940e-09\PG=CS [SG(O4)]\\@
 Normal termination of Gaussian 16 at Sun Feb 18 00:58:42 2024.
