 Gaussian 16, Revision A.03,
 Gaussian 16:  ES64L-G16RevA.03 25-Dec-2016

 -----------------------------------------------
 #p ROCCSD(T,MaxCyc=200)/cc-pVTZ SCF(MaxCyc=200)
 -----------------------------------------------

 ---------
 O2_O2_246
 ---------
 Symbolic Z-matrix:
 Charge = -1 Multiplicity = 2

                         Standard orientation:
 ---------------------------------------------------------------------
 Center     Atomic      Atomic             Coordinates (Angstroms)
 Number     Number       Type             X           Y           Z
 ---------------------------------------------------------------------
      1          8           0        0.000000    0.000000    3.300000
      2          8           0        0.000000    0.000000    2.140000
      3          8           0        0.000000    0.000000   -2.140000
      4          8           0        0.000000    0.000000   -3.300000
 ---------------------------------------------------------------------

 SCF Done:  E(ROHF) =  -299.163943076     A.U. after   13 cycles
 E2 =    -0.9594808307D+00 EUMP2 =    -0.30012342390672D+03
 CCSD(T)
 CCSD(T)= -0.30014713404D+03

 Unable to determine electronic state:  an orbital has unidentified symmetry.
 Alpha  occ. eigenvalues --  -20.44134 -20.44134 -20.43708 -20.43707  -1.43863
 Alpha  occ. eigenvalues --   -1.43858  -0.84705  -0.84628  -0.52238  -0.52232
 Alpha  occ. eigenvalues --   -0.49471  -0.49374  -0.48296  -0.48045  -0.18373
 Alpha  occ. eigenvalues --   -0.18346  -0.00101
 Alpha virt. eigenvalues --    0.09964   0.61189   0.66861   0.91601   0.91752
 Alpha virt. eigenvalues --    0.91833   0.92407   0.92551   0.95927   1.03531
 Alpha virt. eigenvalues --    1.03912   1.03991   1.04102   1.04467   1.06934

 Mulliken charges and spin densities:
               1          2
     1  O   -0.274662   0.242292
     2  O   -0.225338   0.257708
     3  O   -0.225338   0.257708
     4  O   -0.274662   0.242292
 Sum of Mulliken charges =  -1.00000   1.00000

 Dipole moment (field-independent basis, Debye):
    X=             -0.0000    Y=              0.0000    Z=              0.0000  Tot=              0.0000
 Quadrupole moment (field-independent basis, Debye-Ang):
   XX=            -23.1860   YY=            -20.6732   ZZ=            -63.0092
   XY=              0.0000   XZ=              0.0000   YZ=              0.0000

 Normal termination of Gaussian 16 at Sun Feb 18 03:57:11 2024.
