 Gaussian 16, Revision A.03,
 Gaussian 16:  ES64L-G16RevA.03 25-Dec-2016

 -----------------------------------------------
 #p ROCCSD(T,MaxCyc=200)/cc-pVTZ SCF(MaxCyc=200)
 -----------------------------------------------

 ---------
 O2_O2_155
 ---------
 Symbolic Z-matrix:
 Charge = -1 Multiplicity = 2

                         Standard orientation:
 ---------------------------------------------------------------------
 Center     Atomic      Atomic             Coordinates (Angstroms)
 Number     Number       Type             X           Y           Z
 ---------------------------------------------------------------------
      1          8           0       -0.870000   -1.810000    0.000000
      2          8           0        0.290000   -1.810000    0.000000
      3          8           0        0.290000    1.230000    0.000000
      4          8           0        0.290000    2.390000    0.000000
 ---------------------------------------------------------------------

 SCF Done:  E(ROHF) =  -299.171496914     A.U. after   15 cycles
 E2 =    -0.9574259959D+00 EUMP2 =    -0.30012892290998D+03
 CCSD(T)
 CCSD(T)= -0.30015582145D+03

 The electronic state is 2-A'.
 Alpha  occ. eigenvalues --  -20.43173 -20.42110 -20.41664 -20.41546  -1.42474
 Alpha  occ. eigenvalues --   -1.41433  -0.83151  -0.82413  -0.50872  -0.49858
 Alpha  occ. eigenvalues --   -0.48301  -0.47242  -0.46501  -0.45353  -0.16964
 Alpha  occ. eigenvalues --   -0.16048  -0.00947
 Alpha virt. eigenvalues --    0.15059   0.64371   0.66823   0.87419   0.92207
 Alpha virt. eigenvalues --    0.92209   0.95621   0.95750   1.00238   1.04151
 Alpha virt. eigenvalues --    1.04849   1.05282   1.07145   1.07619   1.12853

 Mulliken charges and spin densities:
               1          2
     1  O   -0.269459   0.248805
     2  O   -0.242774   0.264226
     3  O   -0.200403   0.255893
     4  O   -0.287365   0.231077
 Sum of Mulliken charges =  -1.00000   1.00000

 Dipole moment (field-independent basis, Debye):
    X=              0.0913    Y=              0.0045    Z=              0.0000  Tot=              0.0914
 Quadrupole moment (field-independent basis, Debye-Ang):
   XX=            -23.6360   YY=            -40.3019   ZZ=            -23.1976
   XY=             -2.7618   XZ=              0.0000   YZ=              0.0000

 85\CCSD(T)=-300.1558215\RMSD=5.722e-09\PG=CS [SG(O4)]\\@
 Normal termination of Gaussian 16 at Sun Feb 18 01:05:20 2024.
