 Gaussian 16, Revision A.03,
 Gaussian 16:  ES64L-G16RevA.03 25-Dec-2016

 -----------------------------------------------
 #p ROCCSD(T,MaxCyc=200)/cc-pVTZ SCF(MaxCyc=200)
 -----------------------------------------------

 ---------
 O2_O2_225
 ---------
 Symbolic Z-matrix:
 Charge = -1 Multiplicity = 2

                         Standard orientation:
 ---------------------------------------------------------------------
 Center     Atomic      Atomic             Coordinates (Angstroms)
 Number     Number       Type             X           Y           Z
 ---------------------------------------------------------------------
      1          8           0        0.000000    0.000000    3.160000
      2          8           0        0.000000    0.000000    2.000000
      3          8           0        0.000000    0.000000   -2.000000
      4          8           0        0.000000    0.000000   -3.160000
 ---------------------------------------------------------------------

 SCF Done:  E(ROHF) =  -299.164192934     A.U. after   12 cycles
 E2 =    -0.9592456872D+00 EUMP2 =    -0.30012343862072D+03
 CCSD(T)
 CCSD(T)= -0.30014747693D+03

 Unable to determine electronic state:  an orbital has unidentified symmetry.
 Alpha  occ. eigenvalues --  -20.43893 -20.43893 -20.43413 -20.43413  -1.43598
 Alpha  occ. eigenvalues --   -1.43590  -0.84445  -0.84331  -0.51975  -0.51963
 Alpha  occ. eigenvalues --   -0.49229  -0.49049  -0.48051  -0.47751  -0.18116
 Alpha  occ. eigenvalues --   -0.18061  -0.00131
 Alpha virt. eigenvalues --    0.10560   0.59972   0.68366   0.90734   0.91774
 Alpha virt. eigenvalues --    0.92086   0.92579   0.92884   0.97581   1.03503
 Alpha virt. eigenvalues --    1.03895   1.03995   1.04701   1.05057   1.08846

 Mulliken charges and spin densities:
               1          2
     1  O   -0.277059   0.241548
     2  O   -0.222941   0.258452
     3  O   -0.222941   0.258452
     4  O   -0.277059   0.241548
 Sum of Mulliken charges =  -1.00000   1.00000

 Dipole moment (field-independent basis, Debye):
    X=             -0.0000    Y=              0.0000    Z=             -0.0000  Tot=              0.0000
 Quadrupole moment (field-independent basis, Debye-Ang):
   XX=            -20.6776   YY=            -23.1873   ZZ=            -59.5461
   XY=              0.0000   XZ=              0.0000   YZ=              0.0000

 29\PMP2-0=-300.1234386\MP4SDQ=-300.1094223\CCSD=-300.1063813\CCSD(T)=-
 Normal termination of Gaussian 16 at Sun Feb 18 03:12:18 2024.
