 Gaussian 16, Revision A.03,
 Gaussian 16:  ES64L-G16RevA.03 25-Dec-2016

 -----------------------------------------------
 #p ROCCSD(T,MaxCyc=200)/cc-pVTZ SCF(MaxCyc=200)
 -----------------------------------------------

 ---------
 O2_O2_106
 ---------
 Symbolic Z-matrix:
 Charge = -1 Multiplicity = 2

                         Standard orientation:
 ---------------------------------------------------------------------
 Center     Atomic      Atomic             Coordinates (Angstroms)
 Number     Number       Type             X           Y           Z
 ---------------------------------------------------------------------
      1          8           0        0.615183   -2.105183    0.000000
      2          8           0       -0.205061   -1.284939    0.000000
      3          8           0       -0.205061    1.115061    0.000000
      4          8           0       -0.205061    2.275061    0.000000
 ---------------------------------------------------------------------

 SCF Done:  E(ROHF) =  -299.165630834     A.U. after   24 cycles
 E2 =    -0.9571653366D+00 EUMP2 =    -0.30012279617016D+03
 CCSD(T)
 CCSD(T)= -0.30015089095D+03

 The electronic state is 2-A".
 Alpha  occ. eigenvalues --  -20.41680 -20.41430 -20.40742 -20.40139  -1.41245
 Alpha  occ. eigenvalues --   -1.40814  -0.83152  -0.80524  -0.50155  -0.49229
 Alpha  occ. eigenvalues --   -0.48008  -0.45948  -0.44567  -0.44278  -0.15841
 Alpha  occ. eigenvalues --   -0.14976  -0.01130
 Alpha virt. eigenvalues --    0.17293   0.67213   0.71825   0.91074   0.91172
 Alpha virt. eigenvalues --    0.95128   0.96043   0.97648   1.02068   1.02975
 Alpha virt. eigenvalues --    1.06959   1.07817   1.13312   1.13619   1.15940

 Mulliken charges and spin densities:
               1          2
     1  O   -0.298255   0.236772
     2  O   -0.195657   0.256805
     3  O   -0.185260   0.267386
     4  O   -0.320828   0.239038
 Sum of Mulliken charges =  -1.00000   1.00000

 Dipole moment (field-independent basis, Debye):
    X=             -0.1647    Y=             -0.2146    Z=              0.0000  Tot=              0.2705
 Quadrupole moment (field-independent basis, Debye-Ang):
   XX=            -24.0975   YY=            -41.3597   ZZ=            -20.7727
   XY=              2.7526   XZ=              0.0000   YZ=             -0.0000

 \CCSD=-300.1094378\CCSD(T)=-300.1508909\RMSD=5.478e-09\PG=CS [SG(O4)]\
 Normal termination of Gaussian 16 at Sat Feb 17 23:36:03 2024.
