 Gaussian 16, Revision A.03,
 Gaussian 16:  ES64L-G16RevA.03 25-Dec-2016

 -----------------------------------------------
 #p ROCCSD(T,MaxCyc=200)/cc-pVTZ SCF(MaxCyc=200)
 -----------------------------------------------

 ---------
 O2_O2_249
 ---------
 Symbolic Z-matrix:
 Charge = -1 Multiplicity = 2

                         Standard orientation:
 ---------------------------------------------------------------------
 Center     Atomic      Atomic             Coordinates (Angstroms)
 Number     Number       Type             X           Y           Z
 ---------------------------------------------------------------------
      1          8           0        0.000000    0.000000    3.320000
      2          8           0        0.000000    0.000000    2.160000
      3          8           0        0.000000    0.000000   -2.160000
      4          8           0        0.000000    0.000000   -3.320000
 ---------------------------------------------------------------------

 SCF Done:  E(ROHF) =  -299.163918542     A.U. after   13 cycles
 E2 =    -0.9595136186D+00 EUMP2 =    -0.30012343216100D+03
 CCSD(T)
 CCSD(T)= -0.30014709956D+03

 Unable to determine electronic state:  an orbital has unidentified symmetry.
 Alpha  occ. eigenvalues --  -20.44167 -20.44167 -20.43747 -20.43747  -1.43899
 Alpha  occ. eigenvalues --   -1.43894  -0.84740  -0.84668  -0.52274  -0.52269
 Alpha  occ. eigenvalues --   -0.49505  -0.49416  -0.48330  -0.48085  -0.18408
 Alpha  occ. eigenvalues --   -0.18384  -0.00098
 Alpha virt. eigenvalues --    0.09885   0.61351   0.66657   0.91574   0.91709
 Alpha virt. eigenvalues --    0.91962   0.92380   0.92508   0.95724   1.03523
 Alpha virt. eigenvalues --    1.03903   1.04005   1.04034   1.04399   1.06727

 Mulliken charges and spin densities:
               1          2
     1  O   -0.274331   0.242393
     2  O   -0.225669   0.257607
     3  O   -0.225669   0.257607
     4  O   -0.274331   0.242393
 Sum of Mulliken charges =  -1.00000   1.00000

 Dipole moment (field-independent basis, Debye):
    X=             -0.0000    Y=             -0.0000    Z=              0.0000  Tot=              0.0000
 Quadrupole moment (field-independent basis, Debye-Ang):
   XX=            -20.6728   YY=            -23.1859   ZZ=            -63.5199
   XY=              0.0000   XZ=              0.0000   YZ=              0.0000

 Normal termination of Gaussian 16 at Sun Feb 18 04:07:41 2024.
