 Gaussian 16, Revision A.03,
 Gaussian 16:  ES64L-G16RevA.03 25-Dec-2016

 -----------------------------------------------
 #p ROCCSD(T,MaxCyc=200)/cc-pVTZ SCF(MaxCyc=200)
 -----------------------------------------------

 ---------
 O2_O2_127
 ---------
 Symbolic Z-matrix:
 Charge = -1 Multiplicity = 2

                         Standard orientation:
 ---------------------------------------------------------------------
 Center     Atomic      Atomic             Coordinates (Angstroms)
 Number     Number       Type             X           Y           Z
 ---------------------------------------------------------------------
      1          8           0        0.615183   -2.245183   -0.000000
      2          8           0       -0.205061   -1.424939   -0.000000
      3          8           0       -0.205061    1.255061    0.000000
      4          8           0       -0.205061    2.415061    0.000000
 ---------------------------------------------------------------------

 SCF Done:  E(ROHF) =  -299.166983593     A.U. after   18 cycles
 E2 =    -0.9576022378D+00 EUMP2 =    -0.30012458583069D+03
 CCSD(T)
 CCSD(T)= -0.30015187752D+03

 The electronic state is 2-A".
 Alpha  occ. eigenvalues --  -20.42353 -20.41886 -20.41519 -20.40817  -1.41841
 Alpha  occ. eigenvalues --   -1.41367  -0.83092  -0.81612  -0.50398  -0.49721
 Alpha  occ. eigenvalues --   -0.48129  -0.46331  -0.45813  -0.45367  -0.16370
 Alpha  occ. eigenvalues --   -0.15702  -0.00697
 Alpha virt. eigenvalues --    0.15526   0.65459   0.70938   0.91281   0.91309
 Alpha virt. eigenvalues --    0.91897   0.95202   0.96617   1.00743   1.02561
 Alpha virt. eigenvalues --    1.05723   1.08015   1.10351   1.12450   1.13238

 Mulliken charges and spin densities:
               1          2
     1  O   -0.288584   0.236133
     2  O   -0.203365   0.256314
     3  O   -0.201535   0.267743
     4  O   -0.306516   0.239810
 Sum of Mulliken charges =  -1.00000   1.00000

 Dipole moment (field-independent basis, Debye):
    X=             -0.1365    Y=             -0.2470    Z=              0.0000  Tot=              0.2822
 Quadrupole moment (field-independent basis, Debye-Ang):
   XX=            -24.0605   YY=            -43.4740   ZZ=            -20.7443
   XY=              2.8281   XZ=             -0.0000   YZ=             -0.0000

 368\CCSD=-300.1105178\CCSD(T)=-300.1518775\RMSD=2.545e-09\PG=CS [SG(O4
 Normal termination of Gaussian 16 at Sun Feb 18 00:13:32 2024.
