 Gaussian 16, Revision A.03,
 Gaussian 16:  ES64L-G16RevA.03 25-Dec-2016

 -----------------------------------------------
 #p ROCCSD(T,MaxCyc=200)/cc-pVTZ SCF(MaxCyc=200)
 -----------------------------------------------

 ---------
 O2_O2_134
 ---------
 Symbolic Z-matrix:
 Charge = -1 Multiplicity = 2

                         Standard orientation:
 ---------------------------------------------------------------------
 Center     Atomic      Atomic             Coordinates (Angstroms)
 Number     Number       Type             X           Y           Z
 ---------------------------------------------------------------------
      1          8           0       -0.870000   -1.670000    0.000000
      2          8           0        0.290000   -1.670000    0.000000
      3          8           0        0.290000    1.090000    0.000000
      4          8           0        0.290000    2.250000    0.000000
 ---------------------------------------------------------------------

 SCF Done:  E(ROHF) =  -299.173900379     A.U. after   17 cycles
 E2 =    -0.9571983990D+00 EUMP2 =    -0.30013109877750D+03
 CCSD(T)
 CCSD(T)= -0.30015886280D+03

 The electronic state is 2-A'.
 Alpha  occ. eigenvalues --  -20.43018 -20.41712 -20.41015 -20.40903  -1.42176
 Alpha  occ. eigenvalues --   -1.40787  -0.82862  -0.81789  -0.50589  -0.49208
 Alpha  occ. eigenvalues --   -0.48397  -0.46655  -0.46089  -0.44284  -0.16666
 Alpha  occ. eigenvalues --   -0.15407  -0.01359
 Alpha virt. eigenvalues --    0.16575   0.65325   0.68251   0.89094   0.91644
 Alpha virt. eigenvalues --    0.92358   0.96261   0.96397   1.00498   1.02764
 Alpha virt. eigenvalues --    1.05297   1.06082   1.08060   1.09231   1.13093

 Mulliken charges and spin densities:
               1          2
     1  O   -0.276204   0.247049
     2  O   -0.241519   0.271089
     3  O   -0.189355   0.254264
     4  O   -0.292922   0.227598
 Sum of Mulliken charges =  -1.00000   1.00000

 Dipole moment (field-independent basis, Debye):
    X=              0.1279    Y=              0.0488    Z=              0.0000  Tot=              0.1369
 Quadrupole moment (field-independent basis, Debye-Ang):
   XX=            -23.6828   YY=            -38.0577   ZZ=            -23.2011
   XY=             -2.5867   XZ=              0.0000   YZ=              0.0000

 294\CCSD(T)=-300.1588628\RMSD=5.743e-09\PG=CS [SG(O4)]\\@
 Normal termination of Gaussian 16 at Sun Feb 18 00:25:50 2024.
