 Gaussian 16, Revision A.03,
 Gaussian 16:  ES64L-G16RevA.03 25-Dec-2016

 -----------------------------------------------
 #p ROCCSD(T,MaxCyc=200)/cc-pVTZ SCF(MaxCyc=200)
 -----------------------------------------------

 ---------
 O2_O2_266
 ---------
 Symbolic Z-matrix:
 Charge = -1 Multiplicity = 2

                         Standard orientation:
 ---------------------------------------------------------------------
 Center     Atomic      Atomic             Coordinates (Angstroms)
 Number     Number       Type             X           Y           Z
 ---------------------------------------------------------------------
      1          8           0       -0.870000   -2.550000    0.000000
      2          8           0        0.290000   -2.550000    0.000000
      3          8           0        0.290000    1.970000    0.000000
      4          8           0        0.290000    3.130000    0.000000
 ---------------------------------------------------------------------

 SCF Done:  E(ROHF) =  -299.164934284     A.U. after   18 cycles
 E2 =    -0.9591741511D+00 EUMP2 =    -0.30012410843516D+03
 CCSD(T)
 CCSD(T)= -0.30014838743D+03

 The electronic state is 2-A'.
 Alpha  occ. eigenvalues --  -20.44291 -20.43837 -20.43628 -20.43515  -1.43967
 Alpha  occ. eigenvalues --   -1.43483  -0.84755  -0.84404  -0.52347  -0.51877
 Alpha  occ. eigenvalues --   -0.49537  -0.49193  -0.48199  -0.47823  -0.18474
 Alpha  occ. eigenvalues --   -0.18041  -0.00207
 Alpha virt. eigenvalues --    0.10321   0.63879   0.64193   0.91514   0.91669
 Alpha virt. eigenvalues --    0.92409   0.92826   0.93850   0.94470   1.03739
 Alpha virt. eigenvalues --    1.03927   1.04001   1.04499   1.05121   1.05489

 Mulliken charges and spin densities:
               1          2
     1  O   -0.256541   0.251427
     2  O   -0.248942   0.254096
     3  O   -0.222191   0.254911
     4  O   -0.272326   0.239566
 Sum of Mulliken charges =  -1.00000   1.00000

 Dipole moment (field-independent basis, Debye):
    X=              0.0331    Y=              0.0135    Z=              0.0000  Tot=              0.0357
 Quadrupole moment (field-independent basis, Debye-Ang):
   XX=            -23.5206   YY=            -55.5560   ZZ=            -23.1866
   XY=             -3.7013   XZ=              0.0000   YZ=              0.0000

 18\CCSD(T)=-300.1483874\RMSD=7.442e-09\PG=CS [SG(O4)]\\@
 Normal termination of Gaussian 16 at Sun Feb 18 04:43:01 2024.
