 Gaussian 16, Revision A.03,
 Gaussian 16:  ES64L-G16RevA.03 25-Dec-2016

 -----------------------------------------------
 #p ROCCSD(T,MaxCyc=200)/cc-pVTZ SCF(MaxCyc=200)
 -----------------------------------------------

 ---------
 O2_O2_100
 ---------
 Symbolic Z-matrix:
 Charge = -1 Multiplicity = 2

                         Standard orientation:
 ---------------------------------------------------------------------
 Center     Atomic      Atomic             Coordinates (Angstroms)
 Number     Number       Type             X           Y           Z
 ---------------------------------------------------------------------
      1          8           0        0.615183   -2.065183    0.000000
      2          8           0       -0.205061   -1.244939    0.000000
      3          8           0       -0.205061    1.075061   -0.000000
      4          8           0       -0.205061    2.235061   -0.000000
 ---------------------------------------------------------------------

 SCF Done:  E(ROHF) =  -299.188417087     A.U. after   20 cycles
 E2 =    -0.9305491294D+00 EUMP2 =    -0.30011896621636D+03
 CCSD(T)
 CCSD(T)= -0.30017444669D+03

 The electronic state is 2-A'.
 Alpha  occ. eigenvalues --  -20.55167 -20.53843 -20.27232 -20.26834  -1.52033
 Alpha  occ. eigenvalues --   -1.29984  -0.90671  -0.73096  -0.60807  -0.56929
 Alpha  occ. eigenvalues --   -0.49930  -0.41302  -0.37448  -0.35555  -0.26776
 Alpha  occ. eigenvalues --   -0.07991  -0.03214
 Alpha virt. eigenvalues --    0.22420   0.63557   0.74470   0.86813   0.86830
 Alpha virt. eigenvalues --    0.92378   0.95155   0.97974   1.02513   1.03749
 Alpha virt. eigenvalues --    1.06770   1.09374   1.14859   1.16729   1.19605

 Mulliken charges and spin densities:
               1          2
     1  O   -0.474226   0.502707
     2  O   -0.457748   0.496263
     3  O    0.070749   0.000094
     4  O   -0.138776   0.000936
 Sum of Mulliken charges =  -1.00000   1.00000

 Dipole moment (field-independent basis, Debye):
    X=             -0.8893    Y=              6.2956    Z=             -0.0000  Tot=              6.3581
 Quadrupole moment (field-independent basis, Debye-Ang):
   XX=            -24.1387   YY=            -39.6255   ZZ=            -21.6985
   XY=              3.5260   XZ=              0.0000   YZ=              0.0000

 28429\CCSD=-300.153308\CCSD(T)=-300.1744467\RMSD=3.791e-09\PG=CS [SG(O
 Normal termination of Gaussian 16 at Sat Feb 17 23:23:20 2024.
