 Gaussian 16, Revision A.03,
 Gaussian 16:  ES64L-G16RevA.03 25-Dec-2016

 -----------------------------------------------
 #p ROCCSD(T,MaxCyc=200)/cc-pVTZ SCF(MaxCyc=200)
 -----------------------------------------------

 ---------
 O2_O2_206
 ---------
 Symbolic Z-matrix:
 Charge = -1 Multiplicity = 2

                         Standard orientation:
 ---------------------------------------------------------------------
 Center     Atomic      Atomic             Coordinates (Angstroms)
 Number     Number       Type             X           Y           Z
 ---------------------------------------------------------------------
      1          8           0       -0.870000   -2.150000    0.000000
      2          8           0        0.290000   -2.150000    0.000000
      3          8           0        0.290000    1.570000    0.000000
      4          8           0        0.290000    2.730000    0.000000
 ---------------------------------------------------------------------

 SCF Done:  E(ROHF) =  -299.167001499     A.U. after   15 cycles
 E2 =    -0.9582617660D+00 EUMP2 =    -0.30012526326477D+03
 CCSD(T)
 CCSD(T)= -0.30015037571D+03

 The electronic state is 2-A'.
 Alpha  occ. eigenvalues --  -20.43663 -20.42989 -20.42742 -20.42617  -1.43209
 Alpha  occ. eigenvalues --   -1.42559  -0.83949  -0.83502  -0.51594  -0.50967
 Alpha  occ. eigenvalues --   -0.48772  -0.48305  -0.47382  -0.46830  -0.17707
 Alpha  occ. eigenvalues --   -0.17141  -0.00423
 Alpha virt. eigenvalues --    0.12370   0.63678   0.65197   0.88553   0.92282
 Alpha virt. eigenvalues --    0.92858   0.93944   0.94712   0.98798   1.03270
 Alpha virt. eigenvalues --    1.04329   1.05183   1.05966   1.06088   1.08665

 Mulliken charges and spin densities:
               1          2
     1  O   -0.260664   0.250893
     2  O   -0.246553   0.256847
     3  O   -0.213257   0.256028
     4  O   -0.279526   0.236232
 Sum of Mulliken charges =  -1.00000   1.00000

 Dipole moment (field-independent basis, Debye):
    X=              0.0498    Y=             -0.0105    Z=              0.0000  Tot=              0.0509
 Quadrupole moment (field-independent basis, Debye-Ang):
   XX=            -23.5613   YY=            -46.6461   ZZ=            -23.1913
   XY=             -3.1921   XZ=              0.0000   YZ=              0.0000

 806\CCSD(T)=-300.1503757\RMSD=8.208e-09\PG=CS [SG(O4)]\\@
 Normal termination of Gaussian 16 at Sun Feb 18 02:36:05 2024.
