 Gaussian 16, Revision A.03,
 Gaussian 16:  ES64L-G16RevA.03 25-Dec-2016

 -----------------------------------------------
 #p ROCCSD(T,MaxCyc=200)/cc-pVTZ SCF(MaxCyc=200)
 -----------------------------------------------

 ---------
 O2_O2_195
 ---------
 Symbolic Z-matrix:
 Charge = -1 Multiplicity = 2

                         Standard orientation:
 ---------------------------------------------------------------------
 Center     Atomic      Atomic             Coordinates (Angstroms)
 Number     Number       Type             X           Y           Z
 ---------------------------------------------------------------------
      1          8           0        0.000000    0.000000    2.960000
      2          8           0        0.000000    0.000000    1.800000
      3          8           0        0.000000    0.000000   -1.800000
      4          8           0        0.000000    0.000000   -2.960000
 ---------------------------------------------------------------------

 SCF Done:  E(ROHF) =  -299.164893340     A.U. after   12 cycles
 E2 =    -0.9588778501D+00 EUMP2 =    -0.30012377119037D+03
 CCSD(T)
 CCSD(T)= -0.30014839778D+03

 Unable to determine electronic state:  an orbital has unidentified symmetry.
 Alpha  occ. eigenvalues --  -20.43521 -20.43520 -20.42933 -20.42933  -1.43175
 Alpha  occ. eigenvalues --   -1.43160  -0.84049  -0.83824  -0.51559  -0.51527
 Alpha  occ. eigenvalues --   -0.48887  -0.48472  -0.47663  -0.47262  -0.17725
 Alpha  occ. eigenvalues --   -0.17582  -0.00212
 Alpha virt. eigenvalues --    0.11577   0.58945   0.70331   0.89113   0.91918
 Alpha virt. eigenvalues --    0.92709   0.92715   0.93499   1.00166   1.03115
 Alpha virt. eigenvalues --    1.03536   1.04541   1.06117   1.06447   1.11317

 Mulliken charges and spin densities:
               1          2
     1  O   -0.280791   0.240350
     2  O   -0.219209   0.259650
     3  O   -0.219209   0.259650
     4  O   -0.280791   0.240350
 Sum of Mulliken charges =  -1.00000   1.00000

 Dipole moment (field-independent basis, Debye):
    X=             -0.0000    Y=             -0.0000    Z=             -0.0000  Tot=              0.0000
 Quadrupole moment (field-independent basis, Debye-Ang):
   XX=            -23.1898   YY=            -20.6885   ZZ=            -54.9408
   XY=              0.0000   XZ=              0.0000   YZ=              0.0000

 933\PMP2-0=-300.1237712\MP4SDQ=-300.110364\CCSD=-300.1072653\CCSD(T)=-
 Normal termination of Gaussian 16 at Sun Feb 18 02:18:36 2024.
