 Gaussian 16, Revision A.03,
 Gaussian 16:  ES64L-G16RevA.03 25-Dec-2016

 -----------------------------------------------
 #p ROCCSD(T,MaxCyc=200)/cc-pVTZ SCF(MaxCyc=200)
 -----------------------------------------------

 ---------
 O2_O2_192
 ---------
 Symbolic Z-matrix:
 Charge = -1 Multiplicity = 2

                         Standard orientation:
 ---------------------------------------------------------------------
 Center     Atomic      Atomic             Coordinates (Angstroms)
 Number     Number       Type             X           Y           Z
 ---------------------------------------------------------------------
      1          8           0        0.000000    0.000000    2.940000
      2          8           0        0.000000    0.000000    1.780000
      3          8           0        0.000000    0.000000   -1.780000
      4          8           0        0.000000    0.000000   -2.940000
 ---------------------------------------------------------------------

 SCF Done:  E(ROHF) =  -299.164994117     A.U. after   12 cycles
 E2 =    -0.9588369833D+00 EUMP2 =    -0.30012383110066D+03
 CCSD(T)
 CCSD(T)= -0.30014852649D+03

 Unable to determine electronic state:  an orbital has unidentified symmetry.
 Alpha  occ. eigenvalues --  -20.43481 -20.43481 -20.42881 -20.42881  -1.43130
 Alpha  occ. eigenvalues --   -1.43113  -0.84008  -0.83766  -0.51514  -0.51479
 Alpha  occ. eigenvalues --   -0.48854  -0.48404  -0.47622  -0.47208  -0.17684
 Alpha  occ. eigenvalues --   -0.17528  -0.00224
 Alpha virt. eigenvalues --    0.11692   0.58960   0.70490   0.88991   0.91921
 Alpha virt. eigenvalues --    0.92716   0.92782   0.93571   1.00402   1.03050
 Alpha virt. eigenvalues --    1.03474   1.04641   1.06309   1.06635   1.11406

 Mulliken charges and spin densities:
               1          2
     1  O   -0.281221   0.240220
     2  O   -0.218779   0.259780
     3  O   -0.218779   0.259780
     4  O   -0.281221   0.240220
 Sum of Mulliken charges =  -1.00000   1.00000

 Dipole moment (field-independent basis, Debye):
    X=             -0.0000    Y=             -0.0000    Z=             -0.0000  Tot=              0.0000
 Quadrupole moment (field-independent basis, Debye-Ang):
   XX=            -23.1901   YY=            -20.6900   ZZ=            -54.5026
   XY=              0.0000   XZ=              0.0000   YZ=              0.0000

 Normal termination of Gaussian 16 at Sun Feb 18 02:15:27 2024.
