 Gaussian 16, Revision A.03,
 Gaussian 16:  ES64L-G16RevA.03 25-Dec-2016

 -----------------------------------------------
 #p ROCCSD(T,MaxCyc=200)/cc-pVTZ SCF(MaxCyc=200)
 -----------------------------------------------

 --------
 O2_O2_55
 --------
 Symbolic Z-matrix:
 Charge = -1 Multiplicity = 2

                         Standard orientation:
 ---------------------------------------------------------------------
 Center     Atomic      Atomic             Coordinates (Angstroms)
 Number     Number       Type             X           Y           Z
 ---------------------------------------------------------------------
      1          8           0        0.615183   -1.765183    0.000000
      2          8           0       -0.205061   -0.944939    0.000000
      3          8           0       -0.205061    0.775061   -0.000000
      4          8           0       -0.205061    1.935061   -0.000000
 ---------------------------------------------------------------------

 SCF Done:  E(ROHF) =  -299.125832446     A.U. after   18 cycles
 E2 =    -0.9640797651D+00 EUMP2 =    -0.30008991221103D+03
 CCSD(T)
 CCSD(T)= -0.30014611444D+03

 The electronic state is 2-A'.
 Alpha  occ. eigenvalues --  -20.48273 -20.45182 -20.33197 -20.29512  -1.45665
 Alpha  occ. eigenvalues --   -1.34445  -0.89649  -0.75048  -0.54999  -0.54057
 Alpha  occ. eigenvalues --   -0.45464  -0.43963  -0.39672  -0.34350  -0.20415
 Alpha  occ. eigenvalues --   -0.10419  -0.05519
 Alpha virt. eigenvalues --    0.27640   0.68661   0.74729   0.90649   0.91761
 Alpha virt. eigenvalues --    0.97738   0.99265   1.00291   1.02862   1.05331
 Alpha virt. eigenvalues --    1.08868   1.09154   1.15224   1.21749   1.22713

 Mulliken charges and spin densities:
               1          2
     1  O   -0.475730   0.438201
     2  O   -0.287278   0.549834
     3  O    0.024736   0.005002
     4  O   -0.261728   0.006963
 Sum of Mulliken charges =  -1.00000   1.00000

 Dipole moment (field-independent basis, Debye):
    X=             -0.8425    Y=              3.0984    Z=             -0.0000  Tot=              3.2109
 Quadrupole moment (field-independent basis, Debye-Ang):
   XX=            -24.1017   YY=            -36.9404   ZZ=            -21.7198
   XY=              3.5189   XZ=              0.0000   YZ=              0.0000

 4422\CCSD=-300.0933454\CCSD(T)=-300.1461144\RMSD=8.340e-09\PG=CS [SG(O
 Normal termination of Gaussian 16 at Sat Feb 17 21:47:39 2024.
