 Gaussian 16, Revision A.03,
 Gaussian 16:  ES64L-G16RevA.03 25-Dec-2016

 -----------------------------------------------
 #p ROCCSD(T,MaxCyc=200)/cc-pVTZ SCF(MaxCyc=200)
 -----------------------------------------------

 ---------
 O2_O2_137
 ---------
 Symbolic Z-matrix:
 Charge = -1 Multiplicity = 2

                         Standard orientation:
 ---------------------------------------------------------------------
 Center     Atomic      Atomic             Coordinates (Angstroms)
 Number     Number       Type             X           Y           Z
 ---------------------------------------------------------------------
      1          8           0       -0.870000   -1.690000    0.000000
      2          8           0        0.290000   -1.690000    0.000000
      3          8           0        0.290000    1.110000    0.000000
      4          8           0        0.290000    2.270000    0.000000
 ---------------------------------------------------------------------

 SCF Done:  E(ROHF) =  -299.173579264     A.U. after   15 cycles
 E2 =    -0.9572173590D+00 EUMP2 =    -0.30013079662298D+03
 CCSD(T)
 CCSD(T)= -0.30015843314D+03

 The electronic state is 2-A'.
 Alpha  occ. eigenvalues --  -20.43039 -20.41770 -20.41119 -20.41006  -1.42217
 Alpha  occ. eigenvalues --   -1.40888  -0.82898  -0.81887  -0.50628  -0.49310
 Alpha  occ. eigenvalues --   -0.48365  -0.46745  -0.46151  -0.44463  -0.16707
 Alpha  occ. eigenvalues --   -0.15508  -0.01290
 Alpha virt. eigenvalues --    0.16340   0.65193   0.68019   0.88754   0.91722
 Alpha virt. eigenvalues --    0.92287   0.96187   0.96286   1.00436   1.03045
 Alpha virt. eigenvalues --    1.05221   1.05915   1.07883   1.08985   1.13060

 Mulliken charges and spin densities:
               1          2
     1  O   -0.275078   0.247359
     2  O   -0.241668   0.269877
     3  O   -0.191299   0.254608
     4  O   -0.291955   0.228156
 Sum of Mulliken charges =  -1.00000   1.00000

 Dipole moment (field-independent basis, Debye):
    X=              0.1215    Y=              0.0405    Z=              0.0000  Tot=              0.1281
 Quadrupole moment (field-independent basis, Debye-Ang):
   XX=            -23.6755   YY=            -38.3640   ZZ=            -23.2006
   XY=             -2.6113   XZ=              0.0000   YZ=              0.0000

 46\CCSD(T)=-300.1584331\RMSD=2.436e-09\PG=CS [SG(O4)]\\@
 Normal termination of Gaussian 16 at Sun Feb 18 00:31:14 2024.
