 Gaussian 16, Revision A.03,
 Gaussian 16:  ES64L-G16RevA.03 25-Dec-2016

 -----------------------------------------------
 #p ROCCSD(T,MaxCyc=200)/cc-pVTZ SCF(MaxCyc=200)
 -----------------------------------------------

 --------
 O2_O2_81
 --------
 Symbolic Z-matrix:
 Charge = -1 Multiplicity = 2

                         Standard orientation:
 ---------------------------------------------------------------------
 Center     Atomic      Atomic             Coordinates (Angstroms)
 Number     Number       Type             X           Y           Z
 ---------------------------------------------------------------------
      1          8           0        0.000000    0.000000    2.200000
      2          8           0        0.000000    0.000000    1.040000
      3          8           0        0.000000    0.000000   -1.040000
      4          8           0        0.000000    0.000000   -2.200000
 ---------------------------------------------------------------------

 SCF Done:  E(ROHF) =  -299.047369029     A.U. after   13 cycles
 E2 =    -0.1253037460D+01 EUMP2 =    -0.30030040648960D+03
 CCSD(T)
 CCSD(T)= -0.30019495495D+03

 Unable to determine electronic state:  an orbital has unidentified symmetry.
 Alpha  occ. eigenvalues --  -20.45846 -20.45844 -20.40573 -20.40573  -1.42835
 Alpha  occ. eigenvalues --   -1.42210  -0.86053  -0.80080  -0.53019  -0.51747
 Alpha  occ. eigenvalues --   -0.51224  -0.45810  -0.43350  -0.42685  -0.19361
 Alpha  occ. eigenvalues --   -0.16780  -0.01779
 Alpha virt. eigenvalues --    0.20018   0.69651   0.71712   0.90074   0.91914
 Alpha virt. eigenvalues --    0.95900   0.97107   0.98454   1.01491   1.04039
 Alpha virt. eigenvalues --    1.05433   1.11207   1.12872   1.17315   1.18751

 Mulliken charges and spin densities:
               1          2
     1  O   -0.366145   0.202370
     2  O   -0.133855   0.297630
     3  O   -0.133855   0.297630
     4  O   -0.366145   0.202370
 Sum of Mulliken charges =  -1.00000   1.00000

 Dipole moment (field-independent basis, Debye):
    X=             -0.0000    Y=             -0.0000    Z=             -0.0000  Tot=              0.0000
 Quadrupole moment (field-independent basis, Debye-Ang):
   XX=            -22.5504   YY=            -21.9816   ZZ=            -41.9229
   XY=              0.0000   XZ=              0.0000   YZ=              0.0000

 9\PMP2-0=-300.3004065\MP4SDQ=-299.9929941\CCSD=-300.1033139\CCSD(T)=-3
 Normal termination of Gaussian 16 at Sat Feb 17 22:40:14 2024.
