 Gaussian 16, Revision A.03,
 Gaussian 16:  ES64L-G16RevA.03 25-Dec-2016

 -----------------------------------------------
 #p ROCCSD(T,MaxCyc=200)/cc-pVTZ SCF(MaxCyc=200)
 -----------------------------------------------

 --------
 O2_O2_16
 --------
 Symbolic Z-matrix:
 Charge = -1 Multiplicity = 2

                         Standard orientation:
 ---------------------------------------------------------------------
 Center     Atomic      Atomic             Coordinates (Angstroms)
 Number     Number       Type             X           Y           Z
 ---------------------------------------------------------------------
      1          8           0        0.615183   -1.505183    0.000000
      2          8           0       -0.205061   -0.684939    0.000000
      3          8           0       -0.205061    0.515061   -0.000000
      4          8           0       -0.205061    1.675061   -0.000000
 ---------------------------------------------------------------------

 SCF Done:  E(ROHF) =  -298.941610840     A.U. after   19 cycles
 E2 =    -0.9412446564D+00 EUMP2 =    -0.29988285549632D+03
 CCSD(T)
 CCSD(T)= -0.29991957626D+03

 The electronic state is 2-A".
 Alpha  occ. eigenvalues --  -20.49438 -20.44940 -20.34854 -20.27466  -1.53680
 Alpha  occ. eigenvalues --   -1.36633  -1.09746  -0.68477  -0.63954  -0.58355
 Alpha  occ. eigenvalues --   -0.53287  -0.45547  -0.41070  -0.21272  -0.18729
 Alpha  occ. eigenvalues --   -0.13241  -0.07634
 Alpha virt. eigenvalues --    0.46829   0.72281   0.78047   0.90355   0.91915
 Alpha virt. eigenvalues --    0.92574   0.95932   1.00838   1.04308   1.07759
 Alpha virt. eigenvalues --    1.10058   1.12226   1.16417   1.17464   1.24877

 Mulliken charges and spin densities:
               1          2
     1  O   -0.627217   0.059739
     2  O    0.075958   0.171578
     3  O    0.044887   0.486563
     4  O   -0.493628   0.282120
 Sum of Mulliken charges =  -1.00000   1.00000

 Dipole moment (field-independent basis, Debye):
    X=             -1.0875    Y=              0.6265    Z=              0.0000  Tot=              1.2550
 Quadrupole moment (field-independent basis, Debye-Ang):
   XX=            -24.2414   YY=            -37.6578   ZZ=            -21.6694
   XY=              3.9320   XZ=             -0.0000   YZ=              0.0000

 2003\CCSD=-299.8797099\CCSD(T)=-299.9195763\RMSD=2.020e-09\PG=CS [SG(O
 Normal termination of Gaussian 16 at Sat Feb 17 20:34:59 2024.
