 Gaussian 16, Revision A.03,
 Gaussian 16:  ES64L-G16RevA.03 25-Dec-2016

 -----------------------------------------------
 #p ROCCSD(T,MaxCyc=200)/cc-pVTZ SCF(MaxCyc=200)
 -----------------------------------------------

 -------
 O2_O2_8
 -------
 Symbolic Z-matrix:
 Charge = -1 Multiplicity = 2

                         Standard orientation:
 ---------------------------------------------------------------------
 Center     Atomic      Atomic             Coordinates (Angstroms)
 Number     Number       Type             X           Y           Z
 ---------------------------------------------------------------------
      1          8           0       -0.870000   -0.830000    0.000000
      2          8           0        0.290000   -0.830000    0.000000
      3          8           0        0.290000    0.250000    0.000000
      4          8           0        0.290000    1.410000    0.000000
 ---------------------------------------------------------------------

 SCF Done:  E(ROHF) =  -298.771034369     A.U. after   15 cycles
 E2 =    -0.9192761672D+00 EUMP2 =    -0.29969031053584D+03
 CCSD(T)
 CCSD(T)= -0.29972665077D+03

 The electronic state is 2-A".
 Alpha  occ. eigenvalues --  -20.50792 -20.42538 -20.34368 -20.19888  -1.68535
 Alpha  occ. eigenvalues --   -1.33950  -1.05335  -0.76400  -0.70705  -0.58511
 Alpha  occ. eigenvalues --   -0.51429  -0.41782  -0.39812  -0.19174  -0.16939
 Alpha  occ. eigenvalues --   -0.07235  -0.06451
 Alpha virt. eigenvalues --    0.55421   0.67256   0.71671   0.86817   0.89990
 Alpha virt. eigenvalues --    0.94017   0.99363   1.00992   1.03324   1.10346
 Alpha virt. eigenvalues --    1.11343   1.13533   1.16306   1.23262   1.28422

 Mulliken charges and spin densities:
               1          2
     1  O   -0.785338   0.033705
     2  O    0.095688   0.219484
     3  O    0.189609   0.497689
     4  O   -0.499959   0.249122
 Sum of Mulliken charges =  -1.00000   1.00000

 Dipole moment (field-independent basis, Debye):
    X=              2.7595    Y=             -0.3760    Z=              0.0000  Tot=              2.7850
 Quadrupole moment (field-independent basis, Debye-Ang):
   XX=            -26.1458   YY=            -31.1541   ZZ=            -21.4957
   XY=             -4.2860   XZ=              0.0000   YZ=              0.0000

 2\CCSD(T)=-299.7266508\RMSD=8.295e-09\PG=CS [SG(O4)]\\@
 Normal termination of Gaussian 16 at Sat Feb 17 20:22:44 2024.
