 Gaussian 16, Revision A.03,
 Gaussian 16:  ES64L-G16RevA.03 25-Dec-2016

 -----------------------------------------------
 #p ROCCSD(T,MaxCyc=200)/cc-pVTZ SCF(MaxCyc=200)
 -----------------------------------------------

 -------
 O2_O2_5
 -------
 Symbolic Z-matrix:
 Charge = -1 Multiplicity = 2

                         Standard orientation:
 ---------------------------------------------------------------------
 Center     Atomic      Atomic             Coordinates (Angstroms)
 Number     Number       Type             X           Y           Z
 ---------------------------------------------------------------------
      1          8           0       -0.870000   -0.810000    0.000000
      2          8           0        0.290000   -0.810000    0.000000
      3          8           0        0.290000    0.230000    0.000000
      4          8           0        0.290000    1.390000    0.000000
 ---------------------------------------------------------------------

 SCF Done:  E(ROHF) =  -298.719289241     A.U. after   16 cycles
 E2 =    -0.9170849884D+00 EUMP2 =    -0.29963637422890D+03
 CCSD(T)
 CCSD(T)= -0.29967214399D+03

 The electronic state is 2-A".
 Alpha  occ. eigenvalues --  -20.51221 -20.42329 -20.33308 -20.20047  -1.72948
 Alpha  occ. eigenvalues --   -1.33362  -1.07321  -0.77217  -0.73267  -0.58574
 Alpha  occ. eigenvalues --   -0.51871  -0.40843  -0.39352  -0.19038  -0.16773
 Alpha  occ. eigenvalues --   -0.06596  -0.05622
 Alpha virt. eigenvalues --    0.57709   0.67043   0.71448   0.87461   0.89333
 Alpha virt. eigenvalues --    0.93280   0.99558   1.01266   1.03076   1.10086
 Alpha virt. eigenvalues --    1.11127   1.13861   1.16376   1.23353   1.28937

 Mulliken charges and spin densities:
               1          2
     1  O   -0.793451   0.038098
     2  O    0.110322   0.261718
     3  O    0.200775   0.486212
     4  O   -0.517646   0.213973
 Sum of Mulliken charges =  -1.00000   1.00000

 Dipole moment (field-independent basis, Debye):
    X=              2.7638    Y=             -0.5865    Z=              0.0000  Tot=              2.8254
 Quadrupole moment (field-independent basis, Debye-Ang):
   XX=            -26.1041   YY=            -31.1542   ZZ=            -21.4215
   XY=             -4.2874   XZ=              0.0000   YZ=              0.0000

 \CCSD(T)=-299.672144\RMSD=5.142e-09\PG=CS [SG(O4)]\\@
 Normal termination of Gaussian 16 at Sat Feb 17 20:18:30 2024.
