 Gaussian 16, Revision A.03,
 Gaussian 16:  ES64L-G16RevA.03 25-Dec-2016

 -----------------------------------------------
 #p ROCCSD(T,MaxCyc=200)/cc-pVTZ SCF(MaxCyc=200)
 -----------------------------------------------

 --------
 O2_O2_53
 --------
 Symbolic Z-matrix:
 Charge = -1 Multiplicity = 2

                         Standard orientation:
 ---------------------------------------------------------------------
 Center     Atomic      Atomic             Coordinates (Angstroms)
 Number     Number       Type             X           Y           Z
 ---------------------------------------------------------------------
      1          8           0       -0.870000   -1.130000    0.000000
      2          8           0        0.290000   -1.130000    0.000000
      3          8           0        0.290000    0.550000    0.000000
      4          8           0        0.290000    1.710000    0.000000
 ---------------------------------------------------------------------

 SCF Done:  E(ROHF) =  -299.119460960     A.U. after   24 cycles
 E2 =    -0.9613481921D+00 EUMP2 =    -0.30008080915198D+03
 CCSD(T)
 CCSD(T)= -0.30012465399D+03

 The electronic state is 2-A".
 Alpha  occ. eigenvalues --  -20.47085 -20.41426 -20.31800 -20.31325  -1.43883
 Alpha  occ. eigenvalues --   -1.34295  -0.86112  -0.77204  -0.53045  -0.49627
 Alpha  occ. eigenvalues --   -0.48801  -0.45321  -0.41224  -0.27900  -0.18366
 Alpha  occ. eigenvalues --   -0.12131  -0.07248
 Alpha virt. eigenvalues --    0.32018   0.65572   0.74835   0.88838   0.92847
 Alpha virt. eigenvalues --    0.94904   1.00116   1.00760   1.04330   1.05109
 Alpha virt. eigenvalues --    1.10706   1.12465   1.14483   1.18262   1.26847

 Mulliken charges and spin densities:
               1          2
     1  O   -0.223001   0.000661
     2  O   -0.029081   0.002938
     3  O   -0.333734   0.435890
     4  O   -0.414183   0.560511
 Sum of Mulliken charges =  -1.00000   1.00000

 Dipole moment (field-independent basis, Debye):
    X=              0.0093    Y=             -2.4766    Z=              0.0000  Tot=              2.4766
 Quadrupole moment (field-independent basis, Debye-Ang):
   XX=            -24.3585   YY=            -31.8850   ZZ=            -22.1383
   XY=             -2.4212   XZ=              0.0000   YZ=              0.0000

 \CCSD(T)=-300.124654\RMSD=2.418e-09\PG=CS [SG(O4)]\\@
 Normal termination of Gaussian 16 at Sat Feb 17 21:43:59 2024.
