 Gaussian 16, Revision A.03,
 Gaussian 16:  ES64L-G16RevA.03 25-Dec-2016

 -----------------------------------------------
 #p ROCCSD(T,MaxCyc=200)/cc-pVTZ SCF(MaxCyc=200)
 -----------------------------------------------

 --------
 O2_O2_95
 --------
 Symbolic Z-matrix:
 Charge = -1 Multiplicity = 2

                         Standard orientation:
 ---------------------------------------------------------------------
 Center     Atomic      Atomic             Coordinates (Angstroms)
 Number     Number       Type             X           Y           Z
 ---------------------------------------------------------------------
      1          8           0       -0.870000   -1.410000    0.000000
      2          8           0        0.290000   -1.410000    0.000000
      3          8           0        0.290000    0.830000    0.000000
      4          8           0        0.290000    1.990000    0.000000
 ---------------------------------------------------------------------

 SCF Done:  E(ROHF) =  -299.047072013     A.U. after   38 cycles
 E2 =    -0.1239018704D+01 EUMP2 =    -0.30028609071718D+03
 CCSD(T)
 CCSD(T)= -0.30019041662D+03

 The electronic state is 2-A".
 Alpha  occ. eigenvalues --  -20.44668 -20.43255 -20.42469 -20.39881  -1.42163
 Alpha  occ. eigenvalues --   -1.41290  -0.83315  -0.81577  -0.52329  -0.50989
 Alpha  occ. eigenvalues --   -0.49401  -0.47341  -0.43801  -0.40644  -0.18141
 Alpha  occ. eigenvalues --   -0.17082  -0.01791
 Alpha virt. eigenvalues --    0.21212   0.65968   0.71246   0.89904   0.94265
 Alpha virt. eigenvalues --    0.95817   0.97257   0.97309   0.99965   1.03847
 Alpha virt. eigenvalues --    1.04671   1.06218   1.10952   1.13483   1.14250

 Mulliken charges and spin densities:
               1          2
     1  O   -0.274020   0.204278
     2  O   -0.216138   0.301734
     3  O   -0.150276   0.279918
     4  O   -0.359566   0.214070
 Sum of Mulliken charges =  -1.00000   1.00000

 Dipole moment (field-independent basis, Debye):
    X=              0.1213    Y=             -0.5491    Z=              0.0000  Tot=              0.5624
 Quadrupole moment (field-independent basis, Debye-Ang):
   XX=            -24.3690   YY=            -35.2823   ZZ=            -22.4955
   XY=             -2.2313   XZ=              0.0000   YZ=              0.0000

 CCSD(T)=-300.1904166\RMSD=6.513e-09\PG=CS [SG(O4)]\\@
 Normal termination of Gaussian 16 at Sat Feb 17 23:12:56 2024.
