 Gaussian 16, Revision A.03,
 Gaussian 16:  ES64L-G16RevA.03 25-Dec-2016

 -----------------------------------------------
 #p ROCCSD(T,MaxCyc=200)/cc-pVTZ SCF(MaxCyc=200)
 -----------------------------------------------

 ---------
 O2_O2_177
 ---------
 Symbolic Z-matrix:
 Charge = -1 Multiplicity = 2

                         Standard orientation:
 ---------------------------------------------------------------------
 Center     Atomic      Atomic             Coordinates (Angstroms)
 Number     Number       Type             X           Y           Z
 ---------------------------------------------------------------------
      1          8           0        0.000000    0.000000    2.840000
      2          8           0        0.000000    0.000000    1.680000
      3          8           0        0.000000    0.000000   -1.680000
      4          8           0        0.000000    0.000000   -2.840000
 ---------------------------------------------------------------------

 SCF Done:  E(ROHF) =  -299.165606564     A.U. after   12 cycles
 E2 =    -0.9586155713D+00 EUMP2 =    -0.30012422213542D+03
 CCSD(T)
 CCSD(T)= -0.30014929359D+03

 Unable to determine electronic state:  an orbital has unidentified symmetry.
 Alpha  occ. eigenvalues --  -20.43279 -20.43278 -20.42604 -20.42604  -1.42893
 Alpha  occ. eigenvalues --   -1.42869  -0.83808  -0.83452  -0.51285  -0.51227
 Alpha  occ. eigenvalues --   -0.48706  -0.48028  -0.47407  -0.46918  -0.17480
 Alpha  occ. eigenvalues --   -0.17238  -0.00295
 Alpha virt. eigenvalues --    0.12314   0.59482   0.71147   0.88580   0.91890
 Alpha virt. eigenvalues --    0.92671   0.93179   0.93959   1.01476   1.02658
 Alpha virt. eigenvalues --    1.03102   1.05271   1.07442   1.07743   1.11685

 Mulliken charges and spin densities:
               1          2
     1  O   -0.283767   0.239536
     2  O   -0.216233   0.260464
     3  O   -0.216233   0.260464
     4  O   -0.283767   0.239536
 Sum of Mulliken charges =  -1.00000   1.00000

 Dipole moment (field-independent basis, Debye):
    X=             -0.0000    Y=             -0.0000    Z=              0.0000  Tot=              0.0000
 Quadrupole moment (field-independent basis, Debye-Ang):
   XX=            -20.6989   YY=            -23.1918   ZZ=            -52.3724
   XY=              0.0000   XZ=              0.0000   YZ=              0.0000

 066\PMP2-0=-300.1242221\MP4SDQ=-300.1112715\CCSD=-300.1081307\CCSD(T)=
 Normal termination of Gaussian 16 at Sun Feb 18 01:44:40 2024.
