 Gaussian 16, Revision A.03,
 Gaussian 16:  ES64L-G16RevA.03 25-Dec-2016

 -----------------------------------------------
 #p ROCCSD(T,MaxCyc=200)/cc-pVTZ SCF(MaxCyc=200)
 -----------------------------------------------

 ---------
 O2_O2_107
 ---------
 Symbolic Z-matrix:
 Charge = -1 Multiplicity = 2

                         Standard orientation:
 ---------------------------------------------------------------------
 Center     Atomic      Atomic             Coordinates (Angstroms)
 Number     Number       Type             X           Y           Z
 ---------------------------------------------------------------------
      1          8           0       -0.870000   -1.490000    0.000000
      2          8           0        0.290000   -1.490000    0.000000
      3          8           0        0.290000    0.910000    0.000000
      4          8           0        0.290000    2.070000    0.000000
 ---------------------------------------------------------------------

 SCF Done:  E(ROHF) =  -299.192830472     A.U. after   21 cycles
 E2 =    -0.9319964249D+00 EUMP2 =    -0.30012482689655D+03
 CCSD(T)
 CCSD(T)= -0.30018204395D+03

 The electronic state is 2-A".
 Alpha  occ. eigenvalues --  -20.54004 -20.52389 -20.27949 -20.27578  -1.50732
 Alpha  occ. eigenvalues --   -1.30599  -0.89273  -0.73493  -0.59543  -0.55864
 Alpha  occ. eigenvalues --   -0.48688  -0.41984  -0.37540  -0.36277  -0.25494
 Alpha  occ. eigenvalues --   -0.08648  -0.03676
 Alpha virt. eigenvalues --    0.23677   0.64485   0.71998   0.87465   0.88275
 Alpha virt. eigenvalues --    0.92566   0.95542   1.00228   1.01188   1.03320
 Alpha virt. eigenvalues --    1.07585   1.07744   1.09824   1.12497   1.17438

 Mulliken charges and spin densities:
               1          2
     1  O   -0.477062   0.484663
     2  O   -0.443848   0.515235
     3  O    0.070044   0.000078
     4  O   -0.149133   0.000024
 Sum of Mulliken charges =  -1.00000   1.00000

 Dipole moment (field-independent basis, Debye):
    X=              1.2112    Y=              5.3175    Z=              0.0000  Tot=              5.4537
 Quadrupole moment (field-independent basis, Debye-Ang):
   XX=            -24.4596   YY=            -36.3142   ZZ=            -22.2510
   XY=             -2.3715   XZ=              0.0000   YZ=              0.0000

 66\CCSD(T)=-300.1820439\RMSD=5.620e-09\PG=CS [SG(O4)]\\@
 Normal termination of Gaussian 16 at Sat Feb 17 23:38:49 2024.
