 Gaussian 16, Revision A.03,
 Gaussian 16:  ES64L-G16RevA.03 25-Dec-2016

 -----------------------------------------------
 #p ROCCSD(T,MaxCyc=200)/cc-pVTZ SCF(MaxCyc=200)
 -----------------------------------------------

 --------
 O2_O2_41
 --------
 Symbolic Z-matrix:
 Charge = -1 Multiplicity = 2

                         Standard orientation:
 ---------------------------------------------------------------------
 Center     Atomic      Atomic             Coordinates (Angstroms)
 Number     Number       Type             X           Y           Z
 ---------------------------------------------------------------------
      1          8           0       -0.870000   -1.050000    0.000000
      2          8           0        0.290000   -1.050000    0.000000
      3          8           0        0.290000    0.470000    0.000000
      4          8           0        0.290000    1.630000    0.000000
 ---------------------------------------------------------------------

 SCF Done:  E(ROHF) =  -299.056040562     A.U. after   22 cycles
 E2 =    -0.9602823300D+00 EUMP2 =    -0.30001632289172D+03
 CCSD(T)
 CCSD(T)= -0.30005960348D+03

 The electronic state is 2-A".
 Alpha  occ. eigenvalues --  -20.47521 -20.35530 -20.33251 -20.32495  -1.44267
 Alpha  occ. eigenvalues --   -1.34789  -0.89109  -0.76118  -0.53552  -0.51236
 Alpha  occ. eigenvalues --   -0.47700  -0.45362  -0.42219  -0.22879  -0.17196
 Alpha  occ. eigenvalues --   -0.12221  -0.08984
 Alpha virt. eigenvalues --    0.35253   0.66655   0.73925   0.87796   0.93657
 Alpha virt. eigenvalues --    0.95751   0.99728   1.00820   1.05433   1.06495
 Alpha virt. eigenvalues --    1.11544   1.14454   1.14547   1.17330   1.28177

 Mulliken charges and spin densities:
               1          2
     1  O   -0.336711   0.001004
     2  O    0.010194   0.007390
     3  O   -0.268502   0.427772
     4  O   -0.404982   0.563834
 Sum of Mulliken charges =  -1.00000   1.00000

 Dipole moment (field-independent basis, Debye):
    X=              0.6935    Y=             -1.6195    Z=              0.0000  Tot=              1.7618
 Quadrupole moment (field-independent basis, Debye-Ang):
   XX=            -24.7095   YY=            -31.4411   ZZ=            -22.0340
   XY=             -2.8805   XZ=              0.0000   YZ=              0.0000

 7\CCSD(T)=-300.0596035\RMSD=3.452e-09\PG=CS [SG(O4)]\\@
 Normal termination of Gaussian 16 at Sat Feb 17 21:19:59 2024.
