 Gaussian 16, Revision A.03,
 Gaussian 16:  ES64L-G16RevA.03 25-Dec-2016

 -----------------------------------------------
 #p ROCCSD(T,MaxCyc=200)/cc-pVTZ SCF(MaxCyc=200)
 -----------------------------------------------

 ---------
 O2_O2_175
 ---------
 Symbolic Z-matrix:
 Charge = -1 Multiplicity = 2

                         Standard orientation:
 ---------------------------------------------------------------------
 Center     Atomic      Atomic             Coordinates (Angstroms)
 Number     Number       Type             X           Y           Z
 ---------------------------------------------------------------------
      1          8           0        0.615183   -2.565183    0.000000
      2          8           0       -0.205061   -1.744939    0.000000
      3          8           0       -0.205061    1.575062   -0.000000
      4          8           0       -0.205061    2.735060   -0.000000
 ---------------------------------------------------------------------

 SCF Done:  E(ROHF) =  -299.190864369     A.U. after   24 cycles
 E2 =    -0.9204534022D+00 EUMP2 =    -0.30011131777120D+03
 CCSD(T)
 CCSD(T)= -0.30014801920D+03

 The electronic state is 2-A".
 Alpha  occ. eigenvalues --  -20.60336 -20.59864 -20.24879 -20.24800  -1.57167
 Alpha  occ. eigenvalues --   -1.27926  -0.95772  -0.71002  -0.65915  -0.62317
 Alpha  occ. eigenvalues --   -0.54764  -0.39394  -0.35848  -0.33917  -0.31960
 Alpha  occ. eigenvalues --   -0.06066  -0.02025
 Alpha virt. eigenvalues --    0.17657   0.55704   0.71479   0.82862   0.83350
 Alpha virt. eigenvalues --    0.86672   0.92658   0.94132   0.96807   1.00067
 Alpha virt. eigenvalues --    1.02936   1.05011   1.13758   1.14815   1.15854

 Mulliken charges and spin densities:
               1          2
     1  O   -0.052207   0.000122
     2  O    0.050057   0.000191
     3  O   -0.501587   0.498068
     4  O   -0.496264   0.501619
 Sum of Mulliken charges =  -1.00000   1.00000

 Dipole moment (field-independent basis, Debye):
    X=              0.7896    Y=             -9.9533    Z=              0.0000  Tot=              9.9846
 Quadrupole moment (field-independent basis, Debye-Ang):
   XX=            -23.4617   YY=            -49.3862   ZZ=            -20.6042
   XY=              2.5113   XZ=             -0.0000   YZ=              0.0000

 001\CCSD=-300.1122035\CCSD(T)=-300.1480192\RMSD=7.766e-09\PG=CS [SG(O4
 Normal termination of Gaussian 16 at Sun Feb 18 01:41:26 2024.
