 Gaussian 16, Revision A.03,
 Gaussian 16:  ES64L-G16RevA.03 25-Dec-2016

 -----------------------------------------------
 #p ROCCSD(T,MaxCyc=200)/cc-pVTZ SCF(MaxCyc=200)
 -----------------------------------------------

 ---------
 O2_O2_209
 ---------
 Symbolic Z-matrix:
 Charge = -1 Multiplicity = 2

                         Standard orientation:
 ---------------------------------------------------------------------
 Center     Atomic      Atomic             Coordinates (Angstroms)
 Number     Number       Type             X           Y           Z
 ---------------------------------------------------------------------
      1          8           0       -0.870000   -2.170000    0.000000
      2          8           0        0.290000   -2.170000    0.000000
      3          8           0        0.290000    1.590000    0.000000
      4          8           0        0.290000    2.750000    0.000000
 ---------------------------------------------------------------------

 SCF Done:  E(ROHF) =  -299.166829895     A.U. after   15 cycles
 E2 =    -0.9583111989D+00 EUMP2 =    -0.30012514109417D+03
 CCSD(T)
 CCSD(T)= -0.30015016557D+03

 The electronic state is 2-A'.
 Alpha  occ. eigenvalues --  -20.43696 -20.43037 -20.42792 -20.42668  -1.43251
 Alpha  occ. eigenvalues --   -1.42611  -0.83994  -0.83554  -0.51635  -0.51019
 Alpha  occ. eigenvalues --   -0.48812  -0.48356  -0.47429  -0.46891  -0.17750
 Alpha  occ. eigenvalues --   -0.17192  -0.00405
 Alpha virt. eigenvalues --    0.12245   0.63711   0.65137   0.88744   0.92259
 Alpha virt. eigenvalues --    0.92855   0.93866   0.94662   0.98567   1.03311
 Alpha virt. eigenvalues --    1.04306   1.05095   1.05912   1.06009   1.08450

 Mulliken charges and spin densities:
               1          2
     1  O   -0.260360   0.250960
     2  O   -0.246752   0.256633
     3  O   -0.213765   0.255971
     4  O   -0.279123   0.236435
 Sum of Mulliken charges =  -1.00000   1.00000

 Dipole moment (field-independent basis, Debye):
    X=              0.0486    Y=             -0.0091    Z=              0.0000  Tot=              0.0494
 Quadrupole moment (field-independent basis, Debye-Ang):
   XX=            -23.5584   YY=            -47.0559   ZZ=            -23.1910
   XY=             -3.2173   XZ=              0.0000   YZ=              0.0000

 084\CCSD(T)=-300.1501656\RMSD=8.015e-09\PG=CS [SG(O4)]\\@
 Normal termination of Gaussian 16 at Sun Feb 18 02:39:39 2024.
