 Gaussian 16, Revision A.03,
 Gaussian 16:  ES64L-G16RevA.03 25-Dec-2016

 -----------------------------------------------
 #p ROCCSD(T,MaxCyc=200)/cc-pVTZ SCF(MaxCyc=200)
 -----------------------------------------------

 ---------
 O2_O2_269
 ---------
 Symbolic Z-matrix:
 Charge = -1 Multiplicity = 2

                         Standard orientation:
 ---------------------------------------------------------------------
 Center     Atomic      Atomic             Coordinates (Angstroms)
 Number     Number       Type             X           Y           Z
 ---------------------------------------------------------------------
      1          8           0       -0.870000   -2.570000    0.000000
      2          8           0        0.290000   -2.570000    0.000000
      3          8           0        0.290000    1.990000    0.000000
      4          8           0        0.290000    3.150000    0.000000
 ---------------------------------------------------------------------

 SCF Done:  E(ROHF) =  -299.164885611     A.U. after   16 cycles
 E2 =    -0.9592140383D+00 EUMP2 =    -0.30012409964910D+03
 CCSD(T)
 CCSD(T)= -0.30014835689D+03

 The electronic state is 2-A'.
 Alpha  occ. eigenvalues --  -20.44320 -20.43874 -20.43668 -20.43555  -1.44000
 Alpha  occ. eigenvalues --   -1.43523  -0.84789  -0.84444  -0.52380  -0.51917
 Alpha  occ. eigenvalues --   -0.49572  -0.49233  -0.48234  -0.47865  -0.18507
 Alpha  occ. eigenvalues --   -0.18081  -0.00201
 Alpha virt. eigenvalues --    0.10238   0.63859   0.64149   0.91543   0.91659
 Alpha virt. eigenvalues --    0.92378   0.92785   0.93812   0.94342   1.03706
 Alpha virt. eigenvalues --    1.03927   1.03961   1.04451   1.05075   1.05412

 Mulliken charges and spin densities:
               1          2
     1  O   -0.256398   0.251422
     2  O   -0.248993   0.254003
     3  O   -0.222580   0.254865
     4  O   -0.272028   0.239710
 Sum of Mulliken charges =  -1.00000   1.00000

 Dipole moment (field-independent basis, Debye):
    X=              0.0324    Y=              0.0140    Z=              0.0000  Tot=              0.0353
 Quadrupole moment (field-independent basis, Debye-Ang):
   XX=            -23.5193   YY=            -56.0410   ZZ=            -23.1864
   XY=             -3.7270   XZ=              0.0000   YZ=              0.0000

 952\CCSD(T)=-300.1483569\RMSD=4.914e-09\PG=CS [SG(O4)]\\@
 Normal termination of Gaussian 16 at Sun Feb 18 04:52:16 2024.
