 Gaussian 16, Revision A.03,
 Gaussian 16:  ES64L-G16RevA.03 25-Dec-2016

 -----------------------------------------------
 #p ROCCSD(T,MaxCyc=200)/cc-pVTZ SCF(MaxCyc=200)
 -----------------------------------------------

 ---------
 O2_O2_190
 ---------
 Symbolic Z-matrix:
 Charge = -1 Multiplicity = 2

                         Standard orientation:
 ---------------------------------------------------------------------
 Center     Atomic      Atomic             Coordinates (Angstroms)
 Number     Number       Type             X           Y           Z
 ---------------------------------------------------------------------
      1          8           0        0.615183   -2.665183    0.000000
      2          8           0       -0.205061   -1.844939    0.000000
      3          8           0       -0.205061    1.675061   -0.000000
      4          8           0       -0.205061    2.835061   -0.000000
 ---------------------------------------------------------------------

 SCF Done:  E(ROHF) =  -299.164777698     A.U. after   39 cycles
 E2 =    -0.9588278027D+00 EUMP2 =    -0.30012360550113D+03
 CCSD(T)
 CCSD(T)= -0.30014860527D+03

 The electronic state is 2-A".
 Alpha  occ. eigenvalues --  -20.43521 -20.43014 -20.43002 -20.42378  -1.43141
 Alpha  occ. eigenvalues --   -1.42677  -0.83959  -0.83428  -0.51509  -0.51045
 Alpha  occ. eigenvalues --   -0.48786  -0.48099  -0.47449  -0.46970  -0.17628
 Alpha  occ. eigenvalues --   -0.17146  -0.00196
 Alpha virt. eigenvalues --    0.12048   0.60893   0.68672   0.88982   0.92022
 Alpha virt. eigenvalues --    0.92907   0.93064   0.94184   0.98439   1.03614
 Alpha virt. eigenvalues --    1.03781   1.04570   1.06365   1.06856   1.11296

 Mulliken charges and spin densities:
               1          2
     1  O   -0.273892   0.238951
     2  O   -0.218832   0.254737
     3  O   -0.220578   0.263740
     4  O   -0.286697   0.242572
 Sum of Mulliken charges =  -1.00000   1.00000

 Dipole moment (field-independent basis, Debye):
    X=             -0.0870    Y=             -0.2362    Z=             -0.0000  Tot=              0.2518
 Quadrupole moment (field-independent basis, Debye-Ang):
   XX=            -24.0099   YY=            -51.2637   ZZ=            -20.6901
   XY=              3.1251   XZ=             -0.0000   YZ=              0.0000

 33\CCSD=-300.1100501\CCSD(T)=-300.1486053\RMSD=7.635e-09\PG=CS [SG(O4)
 Normal termination of Gaussian 16 at Sun Feb 18 02:12:21 2024.
