 Gaussian 16, Revision A.03,
 Gaussian 16:  ES64L-G16RevA.03 25-Dec-2016

 -----------------------------------------------
 #p ROCCSD(T,MaxCyc=200)/cc-pVTZ SCF(MaxCyc=200)
 -----------------------------------------------

 --------
 O2_O2_28
 --------
 Symbolic Z-matrix:
 Charge = -1 Multiplicity = 2

                         Standard orientation:
 ---------------------------------------------------------------------
 Center     Atomic      Atomic             Coordinates (Angstroms)
 Number     Number       Type             X           Y           Z
 ---------------------------------------------------------------------
      1          8           0        0.615183   -1.585183   -0.000000
      2          8           0       -0.205061   -0.764939   -0.000000
      3          8           0       -0.205061    0.595061    0.000000
      4          8           0       -0.205061    1.755061    0.000000
 ---------------------------------------------------------------------

 SCF Done:  E(ROHF) =  -299.015438062     A.U. after   21 cycles
 E2 =    -0.9480175774D+00 EUMP2 =    -0.29996345563959D+03
 CCSD(T)
 CCSD(T)= -0.30000348483D+03

 The electronic state is 2-A".
 Alpha  occ. eigenvalues --  -20.47804 -20.38383 -20.35270 -20.31986  -1.45370
 Alpha  occ. eigenvalues --   -1.36879  -1.01112  -0.70467  -0.56641  -0.52853
 Alpha  occ. eigenvalues --   -0.51518  -0.46443  -0.41178  -0.21026  -0.20775
 Alpha  occ. eigenvalues --   -0.12909  -0.09744
 Alpha virt. eigenvalues --    0.39400   0.71952   0.75752   0.92108   0.93184
 Alpha virt. eigenvalues --    0.94486   0.99599   0.99908   1.03383   1.06379
 Alpha virt. eigenvalues --    1.08970   1.12747   1.14334   1.18914   1.25607

 Mulliken charges and spin densities:
               1          2
     1  O   -0.497691   0.010380
     2  O    0.061835   0.033454
     3  O   -0.148099   0.462816
     4  O   -0.416045   0.493350
 Sum of Mulliken charges =  -1.00000   1.00000

 Dipole moment (field-independent basis, Debye):
    X=             -0.6714    Y=             -0.1218    Z=             -0.0000  Tot=              0.6824
 Quadrupole moment (field-independent basis, Debye-Ang):
   XX=            -23.9692   YY=            -36.6958   ZZ=            -21.8571
   XY=              3.7696   XZ=              0.0000   YZ=             -0.0000

 503\CCSD=-299.9596889\CCSD(T)=-300.0034848\RMSD=3.941e-09\PG=CS [SG(O4
 Normal termination of Gaussian 16 at Sat Feb 17 20:55:08 2024.
