 Gaussian 16, Revision A.03,
 Gaussian 16:  ES64L-G16RevA.03 25-Dec-2016

 -----------------------------------------------
 #p ROCCSD(T,MaxCyc=200)/cc-pVTZ SCF(MaxCyc=200)
 -----------------------------------------------

 ---------
 O2_O2_216
 ---------
 Symbolic Z-matrix:
 Charge = -1 Multiplicity = 2

                         Standard orientation:
 ---------------------------------------------------------------------
 Center     Atomic      Atomic             Coordinates (Angstroms)
 Number     Number       Type             X           Y           Z
 ---------------------------------------------------------------------
      1          8           0        0.000000    0.000000    3.100000
      2          8           0        0.000000    0.000000    1.940000
      3          8           0        0.000000    0.000000   -1.940000
      4          8           0        0.000000    0.000000   -3.100000
 ---------------------------------------------------------------------

 SCF Done:  E(ROHF) =  -299.164352415     A.U. after   12 cycles
 E2 =    -0.9591410026D+00 EUMP2 =    -0.30012349341739D+03
 CCSD(T)
 CCSD(T)= -0.30014769111D+03

 Unable to determine electronic state:  an orbital has unidentified symmetry.
 Alpha  occ. eigenvalues --  -20.43785 -20.43785 -20.43277 -20.43277  -1.43477
 Alpha  occ. eigenvalues --   -1.43468  -0.84329  -0.84190  -0.51855  -0.51839
 Alpha  occ. eigenvalues --   -0.49124  -0.48892  -0.47939  -0.47614  -0.18002
 Alpha  occ. eigenvalues --   -0.17927  -0.00150
 Alpha virt. eigenvalues --    0.10842   0.59498   0.69008   0.90209   0.91835
 Alpha virt. eigenvalues --    0.92253   0.92638   0.93049   0.98370   1.03436
 Alpha virt. eigenvalues --    1.03835   1.04079   1.05043   1.05393   1.09854

 Mulliken charges and spin densities:
               1          2
     1  O   -0.278121   0.241206
     2  O   -0.221879   0.258794
     3  O   -0.221879   0.258794
     4  O   -0.278121   0.241206
 Sum of Mulliken charges =  -1.00000   1.00000

 Dipole moment (field-independent basis, Debye):
    X=             -0.0000    Y=             -0.0000    Z=             -0.0000  Tot=              0.0000
 Quadrupole moment (field-independent basis, Debye-Ang):
   XX=            -20.6802   YY=            -23.1880   ZZ=            -58.1220
   XY=              0.0000   XZ=              0.0000   YZ=              0.0000

 Normal termination of Gaussian 16 at Sun Feb 18 02:54:17 2024.
