 Gaussian 16, Revision A.03,
 Gaussian 16:  ES64L-G16RevA.03 25-Dec-2016

 -----------------------------------------------
 #p ROCCSD(T,MaxCyc=200)/cc-pVTZ SCF(MaxCyc=200)
 -----------------------------------------------

 ---------
 O2_O2_201
 ---------
 Symbolic Z-matrix:
 Charge = -1 Multiplicity = 2

                         Standard orientation:
 ---------------------------------------------------------------------
 Center     Atomic      Atomic             Coordinates (Angstroms)
 Number     Number       Type             X           Y           Z
 ---------------------------------------------------------------------
      1          8           0        0.000000    0.000000    3.000000
      2          8           0        0.000000    0.000000    1.840000
      3          8           0        0.000000    0.000000   -1.840000
      4          8           0        0.000000    0.000000   -3.000000
 ---------------------------------------------------------------------

 SCF Done:  E(ROHF) =  -299.164710960     A.U. after   12 cycles
 E2 =    -0.9589567236D+00 EUMP2 =    -0.30012366768318D+03
 CCSD(T)
 CCSD(T)= -0.30014816265D+03

 Unable to determine electronic state:  an orbital has unidentified symmetry.
 Alpha  occ. eigenvalues --  -20.43598 -20.43598 -20.43035 -20.43035  -1.43264
 Alpha  occ. eigenvalues --   -1.43251  -0.84130  -0.83935  -0.51646  -0.51619
 Alpha  occ. eigenvalues --   -0.48953  -0.48601  -0.47744  -0.47367  -0.17805
 Alpha  occ. eigenvalues --   -0.17686  -0.00191
 Alpha virt. eigenvalues --    0.11354   0.58994   0.69987   0.89389   0.91905
 Alpha virt. eigenvalues --    0.92568   0.92704   0.93361   0.99674   1.03232
 Alpha virt. eigenvalues --    1.03645   1.04368   1.05764   1.06101   1.11076

 Mulliken charges and spin densities:
               1          2
     1  O   -0.279980   0.240604
     2  O   -0.220020   0.259396
     3  O   -0.220020   0.259396
     4  O   -0.279980   0.240604
 Sum of Mulliken charges =  -1.00000   1.00000

 Dipole moment (field-independent basis, Debye):
    X=             -0.0000    Y=              0.0000    Z=             -0.0000  Tot=              0.0000
 Quadrupole moment (field-independent basis, Debye-Ang):
   XX=            -20.6858   YY=            -23.1893   ZZ=            -55.8295
   XY=              0.0000   XZ=              0.0000   YZ=              0.0000

 11\PMP2-0=-300.1236677\MP4SDQ=-300.1101251\CCSD=-300.1070392\CCSD(T)=-
 Normal termination of Gaussian 16 at Sun Feb 18 02:25:15 2024.
