 Gaussian 16, Revision A.03,
 Gaussian 16:  ES64L-G16RevA.03 25-Dec-2016

 -----------------------------------------------
 #p ROCCSD(T,MaxCyc=200)/cc-pVTZ SCF(MaxCyc=200)
 -----------------------------------------------

 --------
 O2_O2_78
 --------
 Symbolic Z-matrix:
 Charge = -1 Multiplicity = 2

                         Standard orientation:
 ---------------------------------------------------------------------
 Center     Atomic      Atomic             Coordinates (Angstroms)
 Number     Number       Type             X           Y           Z
 ---------------------------------------------------------------------
      1          8           0        0.000000    0.000000    2.180000
      2          8           0        0.000000    0.000000    1.020000
      3          8           0        0.000000    0.000000   -1.020000
      4          8           0        0.000000    0.000000   -2.180000
 ---------------------------------------------------------------------

 SCF Done:  E(ROHF) =  -299.049015928     A.U. after   13 cycles
 E2 =    -0.1243713708D+01 EUMP2 =    -0.30029272963653D+03
 CCSD(T)
 CCSD(T)= -0.30019379062D+03

 Unable to determine electronic state:  an orbital has unidentified symmetry.
 Alpha  occ. eigenvalues --  -20.45845 -20.45843 -20.40362 -20.40362  -1.42804
 Alpha  occ. eigenvalues --   -1.42102  -0.86337  -0.79768  -0.53023  -0.51615
 Alpha  occ. eigenvalues --   -0.51407  -0.45820  -0.43188  -0.42168  -0.19375
 Alpha  occ. eigenvalues --   -0.16583  -0.01950
 Alpha virt. eigenvalues --    0.20391   0.69845   0.71717   0.90180   0.92035
 Alpha virt. eigenvalues --    0.96036   0.97240   0.98831   1.01714   1.04279
 Alpha virt. eigenvalues --    1.05544   1.11279   1.12854   1.18157   1.19154

 Mulliken charges and spin densities:
               1          2
     1  O   -0.370283   0.200739
     2  O   -0.129717   0.299261
     3  O   -0.129717   0.299261
     4  O   -0.370283   0.200739
 Sum of Mulliken charges =  -1.00000   1.00000

 Dipole moment (field-independent basis, Debye):
    X=             -0.0000    Y=              0.0000    Z=              0.0000  Tot=              0.0000
 Quadrupole moment (field-independent basis, Debye-Ang):
   XX=            -22.5497   YY=            -21.9836   ZZ=            -41.7155
   XY=              0.0000   XZ=              0.0000   YZ=              0.0000

 59\PMP2-0=-300.2927296\MP4SDQ=-300.0051986\CCSD=-300.1033072\CCSD(T)=-
 Normal termination of Gaussian 16 at Sat Feb 17 22:34:00 2024.
