 Gaussian 16, Revision A.03,
 Gaussian 16:  ES64L-G16RevA.03 25-Dec-2016

 -----------------------------------------------
 #p ROCCSD(T,MaxCyc=200)/cc-pVTZ SCF(MaxCyc=200)
 -----------------------------------------------

 --------
 O2_O2_31
 --------
 Symbolic Z-matrix:
 Charge = -1 Multiplicity = 2

                         Standard orientation:
 ---------------------------------------------------------------------
 Center     Atomic      Atomic             Coordinates (Angstroms)
 Number     Number       Type             X           Y           Z
 ---------------------------------------------------------------------
      1          8           0        0.615183   -1.605183   -0.000000
      2          8           0       -0.205061   -0.784939   -0.000000
      3          8           0       -0.205061    0.615061    0.000000
      4          8           0       -0.205061    1.775061    0.000000
 ---------------------------------------------------------------------

 SCF Done:  E(ROHF) =  -299.033780513     A.U. after   21 cycles
 E2 =    -0.9491449323D+00 EUMP2 =    -0.29998292544570D+03
 CCSD(T)
 CCSD(T)= -0.30002282192D+03

 The electronic state is 2-A".
 Alpha  occ. eigenvalues --  -20.48045 -20.36664 -20.34539 -20.33789  -1.44420
 Alpha  occ. eigenvalues --   -1.36778  -0.99082  -0.71091  -0.55479  -0.52638
 Alpha  occ. eigenvalues --   -0.50284  -0.46610  -0.41236  -0.22461  -0.20400
 Alpha  occ. eigenvalues --   -0.11970  -0.10311
 Alpha virt. eigenvalues --    0.37905   0.71751   0.75392   0.92387   0.93340
 Alpha virt. eigenvalues --    0.94768   0.99419   1.00524   1.03462   1.05825
 Alpha virt. eigenvalues --    1.08480   1.13144   1.13866   1.19211   1.25797

 Mulliken charges and spin densities:
               1          2
     1  O   -0.457727   0.007348
     2  O    0.066942   0.023279
     3  O   -0.195418   0.453247
     4  O   -0.413796   0.516126
 Sum of Mulliken charges =  -1.00000   1.00000

 Dipole moment (field-independent basis, Debye):
    X=             -0.5479    Y=             -0.5748    Z=             -0.0000  Tot=              0.7941
 Quadrupole moment (field-independent basis, Debye-Ang):
   XX=            -23.8564   YY=            -36.5527   ZZ=            -21.9024
   XY=              3.7010   XZ=             -0.0000   YZ=             -0.0000

 0847\CCSD=-299.9785319\CCSD(T)=-300.0228219\RMSD=4.727e-09\PG=CS [SG(O
 Normal termination of Gaussian 16 at Sat Feb 17 21:00:17 2024.
