 Gaussian 16, Revision A.03,
 Gaussian 16:  ES64L-G16RevA.03 25-Dec-2016

 -----------------------------------------------
 #p ROCCSD(T,MaxCyc=200)/cc-pVTZ SCF(MaxCyc=200)
 -----------------------------------------------

 --------
 O2_O2_64
 --------
 Symbolic Z-matrix:
 Charge = -1 Multiplicity = 2

                         Standard orientation:
 ---------------------------------------------------------------------
 Center     Atomic      Atomic             Coordinates (Angstroms)
 Number     Number       Type             X           Y           Z
 ---------------------------------------------------------------------
      1          8           0        0.615183   -1.825183   -0.000000
      2          8           0       -0.205061   -1.004939    0.000000
      3          8           0       -0.205061    0.835061    0.000000
      4          8           0       -0.205061    1.995061    0.000000
 ---------------------------------------------------------------------

 SCF Done:  E(ROHF) =  -299.151942353     A.U. after   18 cycles
 E2 =    -0.9538440625D+00 EUMP2 =    -0.30010578641578D+03
 CCSD(T)
 CCSD(T)= -0.30016609600D+03

 The electronic state is 2-A'.
 Alpha  occ. eigenvalues --  -20.49862 -20.47396 -20.31328 -20.29044  -1.47076
 Alpha  occ. eigenvalues --   -1.33179  -0.88541  -0.75208  -0.56002  -0.54203
 Alpha  occ. eigenvalues --   -0.46061  -0.43323  -0.39331  -0.35614  -0.21841
 Alpha  occ. eigenvalues --   -0.10069  -0.04853
 Alpha virt. eigenvalues --    0.26433   0.67535   0.74754   0.89877   0.90671
 Alpha virt. eigenvalues --    0.96928   0.98272   0.99943   1.03525   1.05274
 Alpha virt. eigenvalues --    1.08339   1.09521   1.15536   1.21595   1.21763

 Mulliken charges and spin densities:
               1          2
     1  O   -0.466768   0.468065
     2  O   -0.345375   0.527423
     3  O    0.041674   0.000241
     4  O   -0.229531   0.004271
 Sum of Mulliken charges =  -1.00000   1.00000

 Dipole moment (field-independent basis, Debye):
    X=             -0.8279    Y=              3.7996    Z=             -0.0000  Tot=              3.8887
 Quadrupole moment (field-independent basis, Debye-Ang):
   XX=            -24.0998   YY=            -37.2163   ZZ=            -21.7334
   XY=              3.4639   XZ=             -0.0000   YZ=              0.0000

 62\CCSD=-300.1176155\CCSD(T)=-300.166096\RMSD=8.491e-09\PG=CS [SG(O4)]
 Normal termination of Gaussian 16 at Sat Feb 17 22:06:55 2024.
