 Gaussian 16, Revision A.03,
 Gaussian 16:  ES64L-G16RevA.03 25-Dec-2016

 -----------------------------------------------
 #p ROCCSD(T,MaxCyc=200)/cc-pVTZ SCF(MaxCyc=200)
 -----------------------------------------------

 ---------
 O2_O2_128
 ---------
 Symbolic Z-matrix:
 Charge = -1 Multiplicity = 2

                         Standard orientation:
 ---------------------------------------------------------------------
 Center     Atomic      Atomic             Coordinates (Angstroms)
 Number     Number       Type             X           Y           Z
 ---------------------------------------------------------------------
      1          8           0       -0.870000   -1.630000    0.000000
      2          8           0        0.290000   -1.630000    0.000000
      3          8           0        0.290000    1.050000    0.000000
      4          8           0        0.290000    2.210000    0.000000
 ---------------------------------------------------------------------

 SCF Done:  E(ROHF) =  -299.174474088     A.U. after   15 cycles
 E2 =    -0.9571825073D+00 EUMP2 =    -0.30013165659565D+03
 CCSD(T)
 CCSD(T)= -0.30015967819D+03

 The electronic state is 2-A'.
 Alpha  occ. eigenvalues --  -20.42979 -20.41595 -20.40795 -20.40682  -1.42095
 Alpha  occ. eigenvalues --   -1.40575  -0.82798  -0.81581  -0.50515  -0.48991
 Alpha  occ. eigenvalues --   -0.48486  -0.46469  -0.45963  -0.43893  -0.16586
 Alpha  occ. eigenvalues --   -0.15193  -0.01509
 Alpha virt. eigenvalues --    0.17066   0.65580   0.68721   0.89855   0.91501
 Alpha virt. eigenvalues --    0.92595   0.96407   0.96619   1.00641   1.02191
 Alpha virt. eigenvalues --    1.05463   1.06413   1.08488   1.09729   1.13159

 Mulliken charges and spin densities:
               1          2
     1  O   -0.278661   0.246348
     2  O   -0.241269   0.273818
     3  O   -0.185006   0.253420
     4  O   -0.295064   0.226414
 Sum of Mulliken charges =  -1.00000   1.00000

 Dipole moment (field-independent basis, Debye):
    X=              0.1420    Y=              0.0678    Z=              0.0000  Tot=              0.1574
 Quadrupole moment (field-independent basis, Debye-Ang):
   XX=            -23.6984   YY=            -37.4601   ZZ=            -23.2021
   XY=             -2.5383   XZ=              0.0000   YZ=              0.0000

 973\CCSD(T)=-300.1596782\RMSD=7.580e-09\PG=CS [SG(O4)]\\@
 Normal termination of Gaussian 16 at Sun Feb 18 00:15:22 2024.
