 Gaussian 16, Revision A.03,
 Gaussian 16:  ES64L-G16RevA.03 25-Dec-2016

 -----------------------------------------------
 #p ROCCSD(T,MaxCyc=200)/cc-pVTZ SCF(MaxCyc=200)
 -----------------------------------------------

 --------
 O2_O2_72
 --------
 Symbolic Z-matrix:
 Charge = -1 Multiplicity = 2

                         Standard orientation:
 ---------------------------------------------------------------------
 Center     Atomic      Atomic             Coordinates (Angstroms)
 Number     Number       Type             X           Y           Z
 ---------------------------------------------------------------------
      1          8           0        0.000000    0.000000    2.140000
      2          8           0        0.000000    0.000000    0.980000
      3          8           0        0.000000    0.000000   -0.980000
      4          8           0        0.000000    0.000000   -2.140000
 ---------------------------------------------------------------------

 SCF Done:  E(ROHF) =  -299.051275925     A.U. after   13 cycles
 E2 =    -0.1225334724D+01 EUMP2 =    -0.30027661064916D+03
 CCSD(T)
 CCSD(T)= -0.30019021195D+03

 Unable to determine electronic state:  an orbital has unidentified symmetry.
 Alpha  occ. eigenvalues --  -20.45832 -20.45830 -20.39901 -20.39901  -1.42752
 Alpha  occ. eigenvalues --   -1.41865  -0.87034  -0.79081  -0.53056  -0.51803
 Alpha  occ. eigenvalues --   -0.51324  -0.45862  -0.42836  -0.40991  -0.19417
 Alpha  occ. eigenvalues --   -0.16153  -0.02326
 Alpha virt. eigenvalues --    0.21191   0.70214   0.71735   0.90425   0.92306
 Alpha virt. eigenvalues --    0.96322   0.97517   0.99434   1.02219   1.04821
 Alpha virt. eigenvalues --    1.05673   1.11540   1.12784   1.19912   1.19930

 Mulliken charges and spin densities:
               1          2
     1  O   -0.378908   0.197269
     2  O   -0.121092   0.302731
     3  O   -0.121092   0.302731
     4  O   -0.378908   0.197269
 Sum of Mulliken charges =  -1.00000   1.00000

 Dipole moment (field-independent basis, Debye):
    X=             -0.0000    Y=              0.0000    Z=              0.0000  Tot=              0.0000
 Quadrupole moment (field-independent basis, Debye-Ang):
   XX=            -22.5453   YY=            -21.9839   ZZ=            -41.3415
   XY=              0.0000   XZ=              0.0000   YZ=              0.0000

 759\PMP2-0=-300.2766106\MP4SDQ=-300.0259234\CCSD=-300.1021461\CCSD(T)=
 Normal termination of Gaussian 16 at Sat Feb 17 22:22:16 2024.
