 Gaussian 16, Revision A.03,
 Gaussian 16:  ES64L-G16RevA.03 25-Dec-2016

 -----------------------------------------------
 #p ROCCSD(T,MaxCyc=200)/cc-pVTZ SCF(MaxCyc=200)
 -----------------------------------------------

 ---------
 O2_O2_215
 ---------
 Symbolic Z-matrix:
 Charge = -1 Multiplicity = 2

                         Standard orientation:
 ---------------------------------------------------------------------
 Center     Atomic      Atomic             Coordinates (Angstroms)
 Number     Number       Type             X           Y           Z
 ---------------------------------------------------------------------
      1          8           0       -0.870000   -2.210000    0.000000
      2          8           0        0.290000   -2.210000    0.000000
      3          8           0        0.290000    1.630000    0.000000
      4          8           0        0.290000    2.790000    0.000000
 ---------------------------------------------------------------------

 SCF Done:  E(ROHF) =  -299.166513562     A.U. after   16 cycles
 E2 =    -0.9584093168D+00 EUMP2 =    -0.30012492287901D+03
 CCSD(T)
 CCSD(T)= -0.30014978613D+03

 The electronic state is 2-A'.
 Alpha  occ. eigenvalues --  -20.43761 -20.43132 -20.42889 -20.42766  -1.43334
 Alpha  occ. eigenvalues --   -1.42714  -0.84083  -0.83654  -0.51718  -0.51120
 Alpha  occ. eigenvalues --   -0.48891  -0.48455  -0.47521  -0.47007  -0.17834
 Alpha  occ. eigenvalues --   -0.17292  -0.00372
 Alpha virt. eigenvalues --    0.12003   0.63778   0.65023   0.89135   0.92208
 Alpha virt. eigenvalues --    0.92840   0.93720   0.94565   0.98080   1.03404
 Alpha virt. eigenvalues --    1.04257   1.04932   1.05765   1.05877   1.08032

 Mulliken charges and spin densities:
               1          2
     1  O   -0.259799   0.251080
     2  O   -0.247124   0.256245
     3  O   -0.214753   0.255853
     4  O   -0.278325   0.236822
 Sum of Mulliken charges =  -1.00000   1.00000

 Dipole moment (field-independent basis, Debye):
    X=              0.0463    Y=             -0.0060    Z=              0.0000  Tot=              0.0467
 Quadrupole moment (field-independent basis, Debye-Ang):
   XX=            -23.5528   YY=            -47.8868   ZZ=            -23.1904
   XY=             -3.2679   XZ=              0.0000   YZ=              0.0000

 CCSD(T)=-300.1497861\RMSD=1.664e-09\PG=CS [SG(O4)]\\@
 Normal termination of Gaussian 16 at Sun Feb 18 02:53:03 2024.
