 Gaussian 16, Revision A.03,
 Gaussian 16:  ES64L-G16RevA.03 25-Dec-2016

 -----------------------------------------------
 #p ROCCSD(T,MaxCyc=200)/cc-pVTZ SCF(MaxCyc=200)
 -----------------------------------------------

 -------
 O2_O2_1
 -------
 Symbolic Z-matrix:
 Charge = -1 Multiplicity = 2

                         Standard orientation:
 ---------------------------------------------------------------------
 Center     Atomic      Atomic             Coordinates (Angstroms)
 Number     Number       Type             X           Y           Z
 ---------------------------------------------------------------------
      1          8           0        0.615183   -1.405183    0.000000
      2          8           0       -0.205061   -0.584939    0.000000
      3          8           0       -0.205061    0.415061   -0.000000
      4          8           0       -0.205061    1.575061   -0.000000
 ---------------------------------------------------------------------

 SCF Done:  E(ROHF) =  -298.769240797     A.U. after   16 cycles
 E2 =    -0.9151542022D+00 EUMP2 =    -0.29968439499888D+03
 CCSD(T)
 CCSD(T)= -0.29971867132D+03

 The electronic state is 2-A".
 Alpha  occ. eigenvalues --  -20.51204 -20.44389 -20.31410 -20.26204  -1.71989
 Alpha  occ. eigenvalues --   -1.34857  -1.18465  -0.75317  -0.72055  -0.61571
 Alpha  occ. eigenvalues --   -0.54706  -0.42285  -0.38363  -0.21033  -0.19450
 Alpha  occ. eigenvalues --   -0.08279  -0.02790
 Alpha virt. eigenvalues --    0.58457   0.72474   0.79310   0.88239   0.89616
 Alpha virt. eigenvalues --    0.90046   0.97749   1.02452   1.06125   1.08516
 Alpha virt. eigenvalues --    1.09753   1.12640   1.17161   1.20116   1.25450

 Mulliken charges and spin densities:
               1          2
     1  O   -0.692121   0.119174
     2  O    0.227958   0.376679
     3  O    0.035837   0.388046
     4  O   -0.571675   0.116101
 Sum of Mulliken charges =  -1.00000   1.00000

 Dipole moment (field-independent basis, Debye):
    X=             -1.3954    Y=              0.2376    Z=              0.0000  Tot=              1.4155
 Quadrupole moment (field-independent basis, Debye-Ang):
   XX=            -24.0987   YY=            -37.7575   ZZ=            -21.2934
   XY=              3.9131   XZ=             -0.0000   YZ=              0.0000

 1\CCSD=-299.6855709\CCSD(T)=-299.7186713\RMSD=4.032e-09\PG=CS [SG(O4)]
 Normal termination of Gaussian 16 at Sat Feb 17 20:12:56 2024.
