 Gaussian 16, Revision A.03,
 Gaussian 16:  ES64L-G16RevA.03 25-Dec-2016

 -----------------------------------------------
 #p ROCCSD(T,MaxCyc=200)/cc-pVTZ SCF(MaxCyc=200)
 -----------------------------------------------

 ---------
 O2_O2_186
 ---------
 Symbolic Z-matrix:
 Charge = -1 Multiplicity = 2

                         Standard orientation:
 ---------------------------------------------------------------------
 Center     Atomic      Atomic             Coordinates (Angstroms)
 Number     Number       Type             X           Y           Z
 ---------------------------------------------------------------------
      1          8           0        0.000000    0.000000    2.900000
      2          8           0        0.000000    0.000000    1.740000
      3          8           0        0.000000    0.000000   -1.740000
      4          8           0        0.000000    0.000000   -2.900000
 ---------------------------------------------------------------------

 SCF Done:  E(ROHF) =  -299.165216459     A.U. after   12 cycles
 E2 =    -0.9587520150D+00 EUMP2 =    -0.30012396847401D+03
 CCSD(T)
 CCSD(T)= -0.30014880773D+03

 Unable to determine electronic state:  an orbital has unidentified symmetry.
 Alpha  occ. eigenvalues --  -20.43402 -20.43401 -20.42773 -20.42773  -1.43037
 Alpha  occ. eigenvalues --   -1.43018  -0.83928  -0.83646  -0.51424  -0.51381
 Alpha  occ. eigenvalues --   -0.48792  -0.48262  -0.47537  -0.47096  -0.17603
 Alpha  occ. eigenvalues --   -0.17417  -0.00249
 Alpha virt. eigenvalues --    0.11931   0.59078   0.70781   0.88783   0.91919
 Alpha virt. eigenvalues --    0.92709   0.92935   0.93721   1.00853   1.02905
 Alpha virt. eigenvalues --    1.03337   1.04866   1.06726   1.07044   1.11543

 Mulliken charges and spin densities:
               1          2
     1  O   -0.282149   0.239953
     2  O   -0.217851   0.260047
     3  O   -0.217851   0.260047
     4  O   -0.282149   0.239953
 Sum of Mulliken charges =  -1.00000   1.00000

 Dipole moment (field-independent basis, Debye):
    X=             -0.0000    Y=              0.0000    Z=              0.0000  Tot=              0.0000
 Quadrupole moment (field-independent basis, Debye-Ang):
   XX=            -23.1907   YY=            -20.6933   ZZ=            -53.6383
   XY=              0.0000   XZ=              0.0000   YZ=             -0.0000

 Normal termination of Gaussian 16 at Sun Feb 18 02:03:11 2024.
