 Gaussian 16, Revision A.03,
 Gaussian 16:  ES64L-G16RevA.03 25-Dec-2016

 -----------------------------------------------
 #p ROCCSD(T,MaxCyc=200)/cc-pVTZ SCF(MaxCyc=200)
 -----------------------------------------------

 ---------
 O2_O2_294
 ---------
 Symbolic Z-matrix:
 Charge = -1 Multiplicity = 2

                         Standard orientation:
 ---------------------------------------------------------------------
 Center     Atomic      Atomic             Coordinates (Angstroms)
 Number     Number       Type             X           Y           Z
 ---------------------------------------------------------------------
      1          8           0        0.000000    0.000000    3.620000
      2          8           0        0.000000    0.000000    2.460000
      3          8           0        0.000000    0.000000   -2.460000
      4          8           0        0.000000    0.000000   -3.620000
 ---------------------------------------------------------------------

 SCF Done:  E(ROHF) =  -299.163747104     A.U. after   13 cycles
 E2 =    -0.9599754311D+00 EUMP2 =    -0.30012372253468D+03
 CCSD(T)
 CCSD(T)= -0.30014683711D+03

 Unable to determine electronic state:  an orbital has unidentified symmetry.
 Alpha  occ. eigenvalues --  -20.44622 -20.44622 -20.44282 -20.44282  -1.44387
 Alpha  occ. eigenvalues --   -1.44384  -0.85230  -0.85191  -0.52761  -0.52760
 Alpha  occ. eigenvalues --   -0.49986  -0.49964  -0.48786  -0.48611  -0.18895
 Alpha  occ. eigenvalues --   -0.18891  -0.00071
 Alpha virt. eigenvalues --    0.08846   0.62839   0.64325   0.91156   0.91181
 Alpha virt. eigenvalues --    0.91961   0.91981   0.92910   0.93727   1.03233
 Alpha virt. eigenvalues --    1.03314   1.03607   1.03685   1.04194   1.04882

 Mulliken charges and spin densities:
               1          2
     1  O   -0.269899   0.243738
     2  O   -0.230101   0.256262
     3  O   -0.230101   0.256262
     4  O   -0.269899   0.243738
 Sum of Mulliken charges =  -1.00000   1.00000

 Dipole moment (field-independent basis, Debye):
    X=             -0.0000    Y=              0.0000    Z=              0.0000  Tot=              0.0000
 Quadrupole moment (field-independent basis, Debye-Ang):
   XX=            -20.6685   YY=            -23.1839   ZZ=            -71.6562
   XY=              0.0000   XZ=              0.0000   YZ=              0.0000

 Normal termination of Gaussian 16 at Sun Feb 18 05:56:41 2024.
