 Gaussian 16, Revision A.03,
 Gaussian 16:  ES64L-G16RevA.03 25-Dec-2016

 -----------------------------------------------
 #p ROCCSD(T,MaxCyc=200)/cc-pVTZ SCF(MaxCyc=200)
 -----------------------------------------------

 ---------
 O2_O2_228
 ---------
 Symbolic Z-matrix:
 Charge = -1 Multiplicity = 2

                         Standard orientation:
 ---------------------------------------------------------------------
 Center     Atomic      Atomic             Coordinates (Angstroms)
 Number     Number       Type             X           Y           Z
 ---------------------------------------------------------------------
      1          8           0        0.000000    0.000000    3.180000
      2          8           0        0.000000    0.000000    2.020000
      3          8           0        0.000000    0.000000   -2.020000
      4          8           0        0.000000    0.000000   -3.180000
 ---------------------------------------------------------------------

 SCF Done:  E(ROHF) =  -299.164147581     A.U. after   12 cycles
 E2 =    -0.9592799477D+00 EUMP2 =    -0.30012342752859D+03
 CCSD(T)
 CCSD(T)= -0.30014741546D+03

 Unable to determine electronic state:  an orbital has unidentified symmetry.
 Alpha  occ. eigenvalues --  -20.43929 -20.43928 -20.43457 -20.43456  -1.43637
 Alpha  occ. eigenvalues --   -1.43630  -0.84483  -0.84376  -0.52014  -0.52003
 Alpha  occ. eigenvalues --   -0.49264  -0.49099  -0.48087  -0.47795  -0.18154
 Alpha  occ. eigenvalues --   -0.18104  -0.00126
 Alpha virt. eigenvalues --    0.10469   0.60145   0.68149   0.90907   0.91752
 Alpha virt. eigenvalues --    0.92034   0.92557   0.92832   0.97324   1.03517
 Alpha virt. eigenvalues --    1.03908   1.03980   1.04600   1.04958   1.08523

 Mulliken charges and spin densities:
               1          2
     1  O   -0.276710   0.241658
     2  O   -0.223290   0.258342
     3  O   -0.223290   0.258342
     4  O   -0.276710   0.241658
 Sum of Mulliken charges =  -1.00000   1.00000

 Dipole moment (field-independent basis, Debye):
    X=             -0.0000    Y=              0.0000    Z=              0.0000  Tot=              0.0000
 Quadrupole moment (field-independent basis, Debye-Ang):
   XX=            -20.6769   YY=            -23.1871   ZZ=            -60.0288
   XY=              0.0000   XZ=              0.0000   YZ=              0.0000

 476\PMP2-0=-300.1234275\MP4SDQ=-300.1093583\CCSD=-300.1063223\CCSD(T)=
 Normal termination of Gaussian 16 at Sun Feb 18 03:16:45 2024.
