 Gaussian 16, Revision A.03,
 Gaussian 16:  ES64L-G16RevA.03 25-Dec-2016

 -----------------------------------------------
 #p ROCCSD(T,MaxCyc=200)/cc-pVTZ SCF(MaxCyc=200)
 -----------------------------------------------

 --------
 O2_O2_97
 --------
 Symbolic Z-matrix:
 Charge = -1 Multiplicity = 2

                         Standard orientation:
 ---------------------------------------------------------------------
 Center     Atomic      Atomic             Coordinates (Angstroms)
 Number     Number       Type             X           Y           Z
 ---------------------------------------------------------------------
      1          8           0        0.615183   -2.045183    0.000000
      2          8           0       -0.205061   -1.224939    0.000000
      3          8           0       -0.205061    1.055061    0.000000
      4          8           0       -0.205061    2.215061    0.000000
 ---------------------------------------------------------------------

 SCF Done:  E(ROHF) =  -299.187402166     A.U. after   20 cycles
 E2 =    -0.9316906356D+00 EUMP2 =    -0.30011909280140D+03
 CCSD(T)
 CCSD(T)= -0.30017704369D+03

 The electronic state is 2-A'.
 Alpha  occ. eigenvalues --  -20.54815 -20.53437 -20.27445 -20.26986  -1.51696
 Alpha  occ. eigenvalues --   -1.30161  -0.90393  -0.73271  -0.60473  -0.56637
 Alpha  occ. eigenvalues --   -0.49635  -0.41446  -0.37571  -0.35659  -0.26437
 Alpha  occ. eigenvalues --   -0.08140  -0.03302
 Alpha virt. eigenvalues --    0.22698   0.63850   0.74522   0.87049   0.87086
 Alpha virt. eigenvalues --    0.92827   0.95219   0.98105   1.02877   1.03872
 Alpha virt. eigenvalues --    1.06846   1.09928   1.15361   1.16629   1.19817

 Mulliken charges and spin densities:
               1          2
     1  O   -0.472928   0.501893
     2  O   -0.452607   0.497205
     3  O    0.070405  -0.000144
     4  O   -0.144870   0.001046
 Sum of Mulliken charges =  -1.00000   1.00000

 Dipole moment (field-independent basis, Debye):
    X=             -0.8832    Y=              6.1138    Z=              0.0000  Tot=              6.1773
 Quadrupole moment (field-independent basis, Debye-Ang):
   XX=            -24.1360   YY=            -39.3689   ZZ=            -21.7032
   XY=              3.5127   XZ=             -0.0000   YZ=             -0.0000

 9289\CCSD=-300.1523104\CCSD(T)=-300.1770437\RMSD=2.725e-09\PG=CS [SG(O
 Normal termination of Gaussian 16 at Sat Feb 17 23:17:15 2024.
