 Gaussian 16, Revision A.03,
 Gaussian 16:  ES64L-G16RevA.03 25-Dec-2016

 -----------------------------------------------
 #p ROCCSD(T,MaxCyc=200)/cc-pVTZ SCF(MaxCyc=200)
 -----------------------------------------------

 ---------
 O2_O2_171
 ---------
 Symbolic Z-matrix:
 Charge = -1 Multiplicity = 2

                         Standard orientation:
 ---------------------------------------------------------------------
 Center     Atomic      Atomic             Coordinates (Angstroms)
 Number     Number       Type             X           Y           Z
 ---------------------------------------------------------------------
      1          8           0        0.000000    0.000000    2.800000
      2          8           0        0.000000    0.000000    1.640000
      3          8           0        0.000000    0.000000   -1.640000
      4          8           0        0.000000    0.000000   -2.800000
 ---------------------------------------------------------------------

 SCF Done:  E(ROHF) =  -299.165907431     A.U. after   12 cycles
 E2 =    -0.9585181361D+00 EUMP2 =    -0.30012442556661D+03
 CCSD(T)
 CCSD(T)= -0.30014966325D+03

 Unable to determine electronic state:  an orbital has unidentified symmetry.
 Alpha  occ. eigenvalues --  -20.43195 -20.43194 -20.42486 -20.42486  -1.42794
 Alpha  occ. eigenvalues --   -1.42765  -0.83730  -0.83313  -0.51189  -0.51119
 Alpha  occ. eigenvalues --   -0.48655  -0.47856  -0.47318  -0.46793  -0.17398
 Alpha  occ. eigenvalues --   -0.17112  -0.00332
 Alpha virt. eigenvalues --    0.12586   0.59903   0.71343   0.88527   0.91854
 Alpha virt. eigenvalues --    0.92625   0.93352   0.94127   1.01855   1.02479
 Alpha virt. eigenvalues --    1.02930   1.05588   1.07983   1.08272   1.11753

 Mulliken charges and spin densities:
               1          2
     1  O   -0.285049   0.239246
     2  O   -0.214951   0.260754
     3  O   -0.214951   0.260754
     4  O   -0.285049   0.239246
 Sum of Mulliken charges =  -1.00000   1.00000

 Dipole moment (field-independent basis, Debye):
    X=             -0.0000    Y=              0.0000    Z=              0.0000  Tot=              0.0000
 Quadrupole moment (field-independent basis, Debye-Ang):
   XX=            -20.7031   YY=            -23.1925   ZZ=            -51.5489
   XY=              0.0000   XZ=              0.0000   YZ=              0.0000

 074\PMP2-0=-300.1244256\MP4SDQ=-300.1116455\CCSD=-300.1084895\CCSD(T)=
 Normal termination of Gaussian 16 at Sun Feb 18 01:33:23 2024.
