 Gaussian 16, Revision A.03,
 Gaussian 16:  ES64L-G16RevA.03 25-Dec-2016

 -----------------------------------------------
 #p ROCCSD(T,MaxCyc=200)/cc-pVTZ SCF(MaxCyc=200)
 -----------------------------------------------

 ---------
 O2_O2_108
 ---------
 Symbolic Z-matrix:
 Charge = -1 Multiplicity = 2

                         Standard orientation:
 ---------------------------------------------------------------------
 Center     Atomic      Atomic             Coordinates (Angstroms)
 Number     Number       Type             X           Y           Z
 ---------------------------------------------------------------------
      1          8           0        0.000000    0.000000    2.380000
      2          8           0        0.000000    0.000000    1.220000
      3          8           0        0.000000    0.000000   -1.220000
      4          8           0        0.000000    0.000000   -2.380000
 ---------------------------------------------------------------------

 SCF Done:  E(ROHF) =  -299.169368337     A.U. after   12 cycles
 E2 =    -0.9573359390D+00 EUMP2 =    -0.30012670427591D+03
 CCSD(T)
 CCSD(T)= -0.30015420315D+03

 Unable to determine electronic state:  an orbital has unidentified symmetry.
 Alpha  occ. eigenvalues --  -20.42083 -20.42082 -20.40831 -20.40831  -1.41559
 Alpha  occ. eigenvalues --   -1.41334  -0.83477  -0.80888  -0.50081  -0.49566
 Alpha  occ. eigenvalues --   -0.48921  -0.46315  -0.44966  -0.44561  -0.16634
 Alpha  occ. eigenvalues --   -0.15115  -0.01238
 Alpha virt. eigenvalues --    0.16722   0.67946   0.72093   0.91058   0.91590
 Alpha virt. eigenvalues --    0.94052   0.95483   0.96183   1.01583   1.02054
 Alpha virt. eigenvalues --    1.05213   1.11875   1.12193   1.13577   1.16522

 Mulliken charges and spin densities:
               1          2
     1  O   -0.315339   0.236609
     2  O   -0.184661   0.263391
     3  O   -0.184661   0.263391
     4  O   -0.315339   0.236609
 Sum of Mulliken charges =  -1.00000   1.00000

 Dipole moment (field-independent basis, Debye):
    X=             -0.0000    Y=             -0.0000    Z=             -0.0000  Tot=              0.0000
 Quadrupole moment (field-independent basis, Debye-Ang):
   XX=            -23.1995   YY=            -20.7756   ZZ=            -43.9794
   XY=              0.0000   XZ=              0.0000   YZ=              0.0000

 683\PMP2-0=-300.1267043\MP4SDQ=-300.1162564\CCSD=-300.112908\CCSD(T)=-
 Normal termination of Gaussian 16 at Sat Feb 17 23:40:03 2024.
