 Gaussian 16, Revision A.03,
 Gaussian 16:  ES64L-G16RevA.03 25-Dec-2016

 -----------------------------------------------
 #p ROCCSD(T,MaxCyc=200)/cc-pVTZ SCF(MaxCyc=200)
 -----------------------------------------------

 ---------
 O2_O2_257
 ---------
 Symbolic Z-matrix:
 Charge = -1 Multiplicity = 2

                         Standard orientation:
 ---------------------------------------------------------------------
 Center     Atomic      Atomic             Coordinates (Angstroms)
 Number     Number       Type             X           Y           Z
 ---------------------------------------------------------------------
      1          8           0       -0.870000   -2.490000    0.000000
      2          8           0        0.290000   -2.490000    0.000000
      3          8           0        0.290000    1.910000    0.000000
      4          8           0        0.290000    3.070000    0.000000
 ---------------------------------------------------------------------

 SCF Done:  E(ROHF) =  -299.165102150     A.U. after   15 cycles
 E2 =    -0.9590507656D+00 EUMP2 =    -0.30012415291536D+03
 CCSD(T)
 CCSD(T)= -0.30014849199D+03

 The electronic state is 2-A'.
 Alpha  occ. eigenvalues --  -20.44203 -20.43725 -20.43506 -20.43392  -1.43865
 Alpha  occ. eigenvalues --   -1.43358  -0.84648  -0.84282  -0.52246  -0.51753
 Alpha  occ. eigenvalues --   -0.49431  -0.49073  -0.48092  -0.47696  -0.18371
 Alpha  occ. eigenvalues --   -0.17919  -0.00225
 Alpha virt. eigenvalues --    0.10577   0.63925   0.64328   0.91314   0.91751
 Alpha virt. eigenvalues --    0.92502   0.92952   0.93965   0.94918   1.03838
 Alpha virt. eigenvalues --    1.03907   1.04127   1.04656   1.05257   1.05768

 Mulliken charges and spin densities:
               1          2
     1  O   -0.256992   0.251433
     2  O   -0.248762   0.254387
     3  O   -0.220990   0.255055
     4  O   -0.273256   0.239126
 Sum of Mulliken charges =  -1.00000   1.00000

 Dipole moment (field-independent basis, Debye):
    X=              0.0350    Y=              0.0118    Z=              0.0000  Tot=              0.0370
 Quadrupole moment (field-independent basis, Debye-Ang):
   XX=            -23.5248   YY=            -54.1239   ZZ=            -23.1871
   XY=             -3.6242   XZ=              0.0000   YZ=              0.0000

 \CCSD(T)=-300.148492\RMSD=6.017e-09\PG=CS [SG(O4)]\\@
 Normal termination of Gaussian 16 at Sun Feb 18 04:24:37 2024.
