 Gaussian 16, Revision A.03,
 Gaussian 16:  ES64L-G16RevA.03 25-Dec-2016

 -----------------------------------------------
 #p ROCCSD(T,MaxCyc=200)/cc-pVTZ SCF(MaxCyc=200)
 -----------------------------------------------

 ---------
 O2_O2_119
 ---------
 Symbolic Z-matrix:
 Charge = -1 Multiplicity = 2

                         Standard orientation:
 ---------------------------------------------------------------------
 Center     Atomic      Atomic             Coordinates (Angstroms)
 Number     Number       Type             X           Y           Z
 ---------------------------------------------------------------------
      1          8           0       -0.870000   -1.570000    0.000000
      2          8           0        0.290000   -1.570000    0.000000
      3          8           0        0.290000    0.990000    0.000000
      4          8           0        0.290000    2.150000    0.000000
 ---------------------------------------------------------------------

 SCF Done:  E(ROHF) =  -299.175036168     A.U. after   15 cycles
 E2 =    -0.9572349277D+00 EUMP2 =    -0.30013227109604D+03
 CCSD(T)
 CCSD(T)= -0.30016068212D+03

 The electronic state is 2-A'.
 Alpha  occ. eigenvalues --  -20.42924 -20.41418 -20.40428 -20.40309  -1.41982
 Alpha  occ. eigenvalues --   -1.40230  -0.82731  -0.81240  -0.50415  -0.48689
 Alpha  occ. eigenvalues --   -0.48632  -0.46184  -0.45754  -0.43213  -0.16475
 Alpha  occ. eigenvalues --   -0.14839  -0.01768
 Alpha virt. eigenvalues --    0.17857   0.65946   0.69398   0.91037   0.91340
 Alpha virt. eigenvalues --    0.93352   0.96624   0.96954   1.00706   1.01538
 Alpha virt. eigenvalues --    1.05747   1.06877   1.09358   1.10475   1.13263

 Mulliken charges and spin densities:
               1          2
     1  O   -0.283013   0.245035
     2  O   -0.241030   0.278855
     3  O   -0.177125   0.251672
     4  O   -0.298831   0.224438
 Sum of Mulliken charges =  -1.00000   1.00000

 Dipole moment (field-independent basis, Debye):
    X=              0.1679    Y=              0.1034    Z=              0.0000  Tot=              0.1972
 Quadrupole moment (field-independent basis, Debye-Ang):
   XX=            -23.7239   YY=            -36.6028   ZZ=            -23.2034
   XY=             -2.4686   XZ=              0.0000   YZ=              0.0000

 319\CCSD(T)=-300.1606821\RMSD=6.231e-09\PG=CS [SG(O4)]\\@
 Normal termination of Gaussian 16 at Sat Feb 17 23:59:16 2024.
