 Gaussian 16, Revision A.03,
 Gaussian 16:  ES64L-G16RevA.03 25-Dec-2016

 -----------------------------------------------
 #p ROCCSD(T,MaxCyc=200)/cc-pVTZ SCF(MaxCyc=200)
 -----------------------------------------------

 -------
 O2_O2_9
 -------
 Symbolic Z-matrix:
 Charge = -1 Multiplicity = 2

                         Standard orientation:
 ---------------------------------------------------------------------
 Center     Atomic      Atomic             Coordinates (Angstroms)
 Number     Number       Type             X           Y           Z
 ---------------------------------------------------------------------
      1          8           0        0.000000    0.000000    1.720000
      2          8           0        0.000000    0.000000    0.560000
      3          8           0        0.000000    0.000000   -0.560000
      4          8           0        0.000000    0.000000   -1.720000
 ---------------------------------------------------------------------

 SCF Done:  E(ROHF) =  -298.711123910     A.U. after   11 cycles
 E2 =    -0.9236113358D+00 EUMP2 =    -0.29963473524602D+03
 CCSD(T)
 CCSD(T)= -0.29967447907D+03

 Unable to determine electronic state:  an orbital has unidentified symmetry.
 Alpha  occ. eigenvalues --  -20.43644 -20.43575 -20.31075 -20.31075  -1.55577
 Alpha  occ. eigenvalues --   -1.34549  -1.13902  -0.65786  -0.63050  -0.63030
 Alpha  occ. eigenvalues --   -0.51867  -0.43701  -0.41724  -0.21264  -0.20081
 Alpha  occ. eigenvalues --   -0.04519  -0.02297
 Alpha virt. eigenvalues --    0.43304   0.71952   0.76995   0.86924   0.90069
 Alpha virt. eigenvalues --    0.91352   0.94892   1.01095   1.01801   1.10154
 Alpha virt. eigenvalues --    1.10993   1.15346   1.25020   1.26396   1.40959

 Mulliken charges and spin densities:
               1          2
     1  O   -0.542108   0.126975
     2  O    0.042108   0.373025
     3  O    0.042108   0.373025
     4  O   -0.542108   0.126975
 Sum of Mulliken charges =  -1.00000   1.00000

 Dipole moment (field-independent basis, Debye):
    X=             -0.0000    Y=             -0.0000    Z=              0.0000  Tot=              0.0000
 Quadrupole moment (field-independent basis, Debye-Ang):
   XX=            -22.0658   YY=            -21.4228   ZZ=            -41.1958
   XY=              0.0000   XZ=              0.0000   YZ=              0.0000

 39\PMP2-0=-299.6347352\MP4SDQ=-299.6384104\CCSD=-299.6375715\CCSD(T)=-
 Normal termination of Gaussian 16 at Sat Feb 17 20:24:01 2024.
