 Gaussian 16, Revision A.03,
 Gaussian 16:  ES64L-G16RevA.03 25-Dec-2016

 -----------------------------------------------
 #p ROCCSD(T,MaxCyc=200)/cc-pVTZ SCF(MaxCyc=200)
 -----------------------------------------------

 --------
 O2_O2_44
 --------
 Symbolic Z-matrix:
 Charge = -1 Multiplicity = 2

                         Standard orientation:
 ---------------------------------------------------------------------
 Center     Atomic      Atomic             Coordinates (Angstroms)
 Number     Number       Type             X           Y           Z
 ---------------------------------------------------------------------
      1          8           0       -0.870000   -1.070000    0.000000
      2          8           0        0.290000   -1.070000    0.000000
      3          8           0        0.290000    0.490000    0.000000
      4          8           0        0.290000    1.650000    0.000000
 ---------------------------------------------------------------------

 SCF Done:  E(ROHF) =  -299.074397416     A.U. after   25 cycles
 E2 =    -0.9619202702D+00 EUMP2 =    -0.30003631768605D+03
 CCSD(T)
 CCSD(T)= -0.30007919235D+03

 The electronic state is 2-A".
 Alpha  occ. eigenvalues --  -20.47245 -20.37284 -20.32801 -20.32102  -1.43948
 Alpha  occ. eigenvalues --   -1.34702  -0.88152  -0.76452  -0.53202  -0.50727
 Alpha  occ. eigenvalues --   -0.47972  -0.45411  -0.41963  -0.24204  -0.17413
 Alpha  occ. eigenvalues --   -0.12302  -0.08482
 Alpha virt. eigenvalues --    0.34323   0.66385   0.74190   0.88059   0.93552
 Alpha virt. eigenvalues --    0.95547   0.99888   1.00810   1.05196   1.06093
 Alpha virt. eigenvalues --    1.11422   1.13830   1.14565   1.17562   1.28045

 Mulliken charges and spin densities:
               1          2
     1  O   -0.300887   0.000890
     2  O   -0.002644   0.005786
     3  O   -0.289304   0.428738
     4  O   -0.407166   0.564586
 Sum of Mulliken charges =  -1.00000   1.00000

 Dipole moment (field-independent basis, Debye):
    X=              0.4842    Y=             -1.8527    Z=              0.0000  Tot=              1.9149
 Quadrupole moment (field-independent basis, Debye-Ang):
   XX=            -24.5934   YY=            -31.5408   ZZ=            -22.0654
   XY=             -2.7287   XZ=              0.0000   YZ=              0.0000

 \CCSD(T)=-300.0791923\RMSD=7.945e-09\PG=CS [SG(O4)]\\@
 Normal termination of Gaussian 16 at Sat Feb 17 21:25:39 2024.
