 Gaussian 16, Revision A.03,
 Gaussian 16:  ES64L-G16RevA.03 25-Dec-2016

 -----------------------------------------------
 #p ROCCSD(T,MaxCyc=200)/cc-pVTZ SCF(MaxCyc=200)
 -----------------------------------------------

 --------
 O2_O2_34
 --------
 Symbolic Z-matrix:
 Charge = -1 Multiplicity = 2

                         Standard orientation:
 ---------------------------------------------------------------------
 Center     Atomic      Atomic             Coordinates (Angstroms)
 Number     Number       Type             X           Y           Z
 ---------------------------------------------------------------------
      1          8           0        0.615183   -1.625183   -0.000000
      2          8           0       -0.205061   -0.804939   -0.000000
      3          8           0       -0.205061    0.635061    0.000000
      4          8           0       -0.205061    1.795061    0.000000
 ---------------------------------------------------------------------

 SCF Done:  E(ROHF) =  -299.051482799     A.U. after   21 cycles
 E2 =    -0.9497141067D+00 EUMP2 =    -0.30000119690546D+03
 CCSD(T)
 CCSD(T)= -0.30004121413D+03

 The electronic state is 2-A".
 Alpha  occ. eigenvalues --  -20.48354 -20.35575 -20.35180 -20.33760  -1.43966
 Alpha  occ. eigenvalues --   -1.36478  -0.97209  -0.71731  -0.54692  -0.52503
 Alpha  occ. eigenvalues --   -0.49228  -0.46644  -0.41255  -0.23939  -0.20137
 Alpha  occ. eigenvalues --   -0.11010  -0.10738
 Alpha virt. eigenvalues --    0.36520   0.71380   0.75258   0.92514   0.93414
 Alpha virt. eigenvalues --    0.94924   0.99307   1.00931   1.03543   1.05366
 Alpha virt. eigenvalues --    1.07975   1.13119   1.14001   1.19463   1.25934

 Mulliken charges and spin densities:
               1          2
     1  O   -0.419804   0.005422
     2  O    0.070750   0.016642
     3  O   -0.235927   0.447598
     4  O   -0.415019   0.530337
 Sum of Mulliken charges =  -1.00000   1.00000

 Dipole moment (field-independent basis, Debye):
    X=             -0.4318    Y=             -1.0370    Z=             -0.0000  Tot=              1.1233
 Quadrupole moment (field-independent basis, Debye-Ang):
   XX=            -23.7462   YY=            -36.4572   ZZ=            -21.9458
   XY=              3.6307   XZ=             -0.0000   YZ=             -0.0000

 993\CCSD=-299.9965023\CCSD(T)=-300.0412141\RMSD=4.440e-09\PG=CS [SG(O4
 Normal termination of Gaussian 16 at Sat Feb 17 21:06:29 2024.
