 Gaussian 16, Revision A.03,
 Gaussian 16:  ES64L-G16RevA.03 25-Dec-2016

 -----------------------------------------------
 #p ROCCSD(T,MaxCyc=200)/cc-pVTZ SCF(MaxCyc=200)
 -----------------------------------------------

 --------
 O2_O2_96
 --------
 Symbolic Z-matrix:
 Charge = -1 Multiplicity = 2

                         Standard orientation:
 ---------------------------------------------------------------------
 Center     Atomic      Atomic             Coordinates (Angstroms)
 Number     Number       Type             X           Y           Z
 ---------------------------------------------------------------------
      1          8           0        0.000000    0.000000    2.300000
      2          8           0        0.000000    0.000000    1.140000
      3          8           0        0.000000    0.000000   -1.140000
      4          8           0        0.000000    0.000000   -2.300000
 ---------------------------------------------------------------------

 SCF Done:  E(ROHF) =  -299.036482521     A.U. after   13 cycles
 E2 =    -0.1300582718D+01 EUMP2 =    -0.30033706523870D+03
 CCSD(T)
 CCSD(T)= -0.30019696953D+03

 Unable to determine electronic state:  an orbital has unidentified symmetry.
 Alpha  occ. eigenvalues --  -20.45806 -20.45804 -20.41463 -20.41463  -1.43018
 Alpha  occ. eigenvalues --   -1.42664  -0.85104  -0.81368  -0.53079  -0.52305
 Alpha  occ. eigenvalues --   -0.50472  -0.45837  -0.44725  -0.44044  -0.19348
 Alpha  occ. eigenvalues --   -0.17612  -0.01065
 Alpha virt. eigenvalues --    0.18378   0.68563   0.71688   0.89758   0.91498
 Alpha virt. eigenvalues --    0.95271   0.96002   0.96488   1.00652   1.03134
 Alpha virt. eigenvalues --    1.04668   1.11138   1.12696   1.13672   1.16619

 Mulliken charges and spin densities:
               1          2
     1  O   -0.346633   0.209554
     2  O   -0.153367   0.290446
     3  O   -0.153367   0.290446
     4  O   -0.346633   0.209554
 Sum of Mulliken charges =  -1.00000   1.00000

 Dipole moment (field-independent basis, Debye):
    X=             -0.0000    Y=              0.0000    Z=             -0.0000  Tot=              0.0000
 Quadrupole moment (field-independent basis, Debye-Ang):
   XX=            -22.5438   YY=            -21.9598   ZZ=            -43.1375
   XY=              0.0000   XZ=              0.0000   YZ=              0.0000

 825\PMP2-0=-300.3370652\MP4SDQ=-299.9152234\CCSD=-300.1000642\CCSD(T)=
 Normal termination of Gaussian 16 at Sat Feb 17 23:14:15 2024.
