 Gaussian 16, Revision A.03,
 Gaussian 16:  ES64L-G16RevA.03 25-Dec-2016

 -----------------------------------------------
 #p ROCCSD(T,MaxCyc=200)/cc-pVTZ SCF(MaxCyc=200)
 -----------------------------------------------

 --------
 O2_O2_24
 --------
 Symbolic Z-matrix:
 Charge = -1 Multiplicity = 2

                         Standard orientation:
 ---------------------------------------------------------------------
 Center     Atomic      Atomic             Coordinates (Angstroms)
 Number     Number       Type             X           Y           Z
 ---------------------------------------------------------------------
      1          8           0        0.000000    0.000000    1.820000
      2          8           0        0.000000    0.000000    0.660000
      3          8           0        0.000000    0.000000   -0.660000
      4          8           0        0.000000    0.000000   -1.820000
 ---------------------------------------------------------------------

 SCF Done:  E(ROHF) =  -298.851042731     A.U. after   12 cycles
 E2 =    -0.1120692434D+01 EUMP2 =    -0.29997173516436D+03
 CCSD(T)
 CCSD(T)= -0.29994919392D+03

 Unable to determine electronic state:  an orbital has unidentified symmetry.
 Alpha  occ. eigenvalues --  -20.46225 -20.46204 -20.32971 -20.32971  -1.46569
 Alpha  occ. eigenvalues --   -1.38454  -1.05712  -0.69820  -0.58311  -0.54734
 Alpha  occ. eigenvalues --   -0.50677  -0.47174  -0.38087  -0.20720  -0.16506
 Alpha  occ. eigenvalues --   -0.10127  -0.07752
 Alpha virt. eigenvalues --    0.31157   0.71360   0.73641   0.91705   0.92699
 Alpha virt. eigenvalues --    0.93439   0.97942   0.99600   1.00666   1.08594
 Alpha virt. eigenvalues --    1.10774   1.12152   1.24182   1.26723   1.26910

 Mulliken charges and spin densities:
               1          2
     1  O   -0.467652   0.162952
     2  O   -0.032348   0.337048
     3  O   -0.032348   0.337048
     4  O   -0.467652   0.162952
 Sum of Mulliken charges =  -1.00000   1.00000

 Dipole moment (field-independent basis, Debye):
    X=             -0.0000    Y=              0.0000    Z=             -0.0000  Tot=              0.0000
 Quadrupole moment (field-independent basis, Debye-Ang):
   XX=            -22.2032   YY=            -21.6285   ZZ=            -41.4126
   XY=              0.0000   XZ=              0.0000   YZ=             -0.0000

 427\PMP2-0=-299.9717352\MP4SDQ=-299.8891471\CCSD=-299.8809846\CCSD(T)=
 Normal termination of Gaussian 16 at Sat Feb 17 20:48:19 2024.
