 Gaussian 16, Revision A.03,
 Gaussian 16:  ES64L-G16RevA.03 25-Dec-2016

 -----------------------------------------------
 #p ROCCSD(T,MaxCyc=200)/cc-pVTZ SCF(MaxCyc=200)
 -----------------------------------------------

 ---------
 O2_O2_164
 ---------
 Symbolic Z-matrix:
 Charge = -1 Multiplicity = 2

                         Standard orientation:
 ---------------------------------------------------------------------
 Center     Atomic      Atomic             Coordinates (Angstroms)
 Number     Number       Type             X           Y           Z
 ---------------------------------------------------------------------
      1          8           0       -0.870000   -1.870000    0.000000
      2          8           0        0.290000   -1.870000    0.000000
      3          8           0        0.290000    1.290000    0.000000
      4          8           0        0.290000    2.450000    0.000000
 ---------------------------------------------------------------------

 SCF Done:  E(ROHF) =  -299.170491191     A.U. after   18 cycles
 E2 =    -0.9575637586D+00 EUMP2 =    -0.30012805494991D+03
 CCSD(T)
 CCSD(T)= -0.30015460661D+03

 The electronic state is 2-A'.
 Alpha  occ. eigenvalues --  -20.43248 -20.42273 -20.41896 -20.41775  -1.42604
 Alpha  occ. eigenvalues --   -1.41671  -0.83290  -0.82643  -0.50998  -0.50094
 Alpha  occ. eigenvalues --   -0.48334  -0.47463  -0.46668  -0.45702  -0.17095
 Alpha  occ. eigenvalues --   -0.16280  -0.00815
 Alpha virt. eigenvalues --    0.14494   0.64009   0.66388   0.87178   0.92262
 Alpha virt. eigenvalues --    0.92424   0.95291   0.95541   1.00217   1.03946
 Alpha virt. eigenvalues --    1.04714   1.05579   1.06898   1.07033   1.12706

 Mulliken charges and spin densities:
               1          2
     1  O   -0.267258   0.249337
     2  O   -0.243409   0.262193
     3  O   -0.203681   0.256180
     4  O   -0.285652   0.232289
 Sum of Mulliken charges =  -1.00000   1.00000

 Dipole moment (field-independent basis, Debye):
    X=              0.0801    Y=             -0.0061    Z=              0.0000  Tot=              0.0803
 Quadrupole moment (field-independent basis, Debye-Ang):
   XX=            -23.6191   YY=            -41.3324   ZZ=            -23.1963
   XY=             -2.8379   XZ=              0.0000   YZ=              0.0000

 186\CCSD(T)=-300.1546066\RMSD=1.874e-09\PG=CS [SG(O4)]\\@
 Normal termination of Gaussian 16 at Sun Feb 18 01:21:23 2024.
