 Gaussian 16, Revision A.03,
 Gaussian 16:  ES64L-G16RevA.03 25-Dec-2016

 -----------------------------------------------
 #p ROCCSD(T,MaxCyc=200)/cc-pVTZ SCF(MaxCyc=200)
 -----------------------------------------------

 ---------
 O2_O2_110
 ---------
 Symbolic Z-matrix:
 Charge = -1 Multiplicity = 2

                         Standard orientation:
 ---------------------------------------------------------------------
 Center     Atomic      Atomic             Coordinates (Angstroms)
 Number     Number       Type             X           Y           Z
 ---------------------------------------------------------------------
      1          8           0       -0.870000   -1.510000    0.000000
      2          8           0        0.290000   -1.510000    0.000000
      3          8           0        0.290000    0.930000    0.000000
      4          8           0        0.290000    2.090000    0.000000
 ---------------------------------------------------------------------

 SCF Done:  E(ROHF) =  -299.193406907     A.U. after   21 cycles
 E2 =    -0.9310661680D+00 EUMP2 =    -0.30012447307537D+03
 CCSD(T)
 CCSD(T)= -0.30018017288D+03

 The electronic state is 2-A".
 Alpha  occ. eigenvalues --  -20.54341 -20.52786 -20.27759 -20.27427  -1.51063
 Alpha  occ. eigenvalues --   -1.30434  -0.89576  -0.73341  -0.59869  -0.56128
 Alpha  occ. eigenvalues --   -0.48984  -0.41828  -0.37490  -0.36149  -0.25827
 Alpha  occ. eigenvalues --   -0.08495  -0.03585
 Alpha virt. eigenvalues --    0.23389   0.64175   0.72091   0.87252   0.87974
 Alpha virt. eigenvalues --    0.91994   0.95469   0.99855   1.00941   1.03351
 Alpha virt. eigenvalues --    1.07136   1.07393   1.10025   1.12509   1.17519

 Mulliken charges and spin densities:
               1          2
     1  O   -0.478442   0.486294
     2  O   -0.448149   0.513614
     3  O    0.069901   0.000072
     4  O   -0.143309   0.000020
 Sum of Mulliken charges =  -1.00000   1.00000

 Dipole moment (field-independent basis, Debye):
    X=              1.2195    Y=              5.4872    Z=              0.0000  Tot=              5.6211
 Quadrupole moment (field-independent basis, Debye-Ang):
   XX=            -24.4649   YY=            -36.5579   ZZ=            -22.2506
   XY=             -2.3938   XZ=              0.0000   YZ=              0.0000

 12\CCSD(T)=-300.1801729\RMSD=8.475e-09\PG=CS [SG(O4)]\\@
 Normal termination of Gaussian 16 at Sat Feb 17 23:44:39 2024.
