 Gaussian 16, Revision A.03,
 Gaussian 16:  ES64L-G16RevA.03 25-Dec-2016

 -----------------------------------------------
 #p ROCCSD(T,MaxCyc=200)/cc-pVTZ SCF(MaxCyc=200)
 -----------------------------------------------

 ---------
 O2_O2_143
 ---------
 Symbolic Z-matrix:
 Charge = -1 Multiplicity = 2

                         Standard orientation:
 ---------------------------------------------------------------------
 Center     Atomic      Atomic             Coordinates (Angstroms)
 Number     Number       Type             X           Y           Z
 ---------------------------------------------------------------------
      1          8           0       -0.870000   -1.730000    0.000000
      2          8           0        0.290000   -1.730000    0.000000
      3          8           0        0.290000    1.150000    0.000000
      4          8           0        0.290000    2.310000    0.000000
 ---------------------------------------------------------------------

 SCF Done:  E(ROHF) =  -299.172898563     A.U. after   15 cycles
 E2 =    -0.9572719483D+00 EUMP2 =    -0.30013017051131D+03
 CCSD(T)
 CCSD(T)= -0.30015755532D+03

 The electronic state is 2-A'.
 Alpha  occ. eigenvalues --  -20.43081 -20.41885 -20.41314 -20.41200  -1.42302
 Alpha  occ. eigenvalues --   -1.41081  -0.82976  -0.82074  -0.50707  -0.49505
 Alpha  occ. eigenvalues --   -0.48320  -0.46919  -0.46270  -0.44793  -0.16791
 Alpha  occ. eigenvalues --   -0.15701  -0.01163
 Alpha virt. eigenvalues --    0.15889   0.64921   0.67576   0.88173   0.91885
 Alpha virt. eigenvalues --    0.92209   0.96040   0.96064   1.00337   1.03564
 Alpha virt. eigenvalues --    1.05080   1.05595   1.07585   1.08505   1.12993

 Mulliken charges and spin densities:
               1          2
     1  O   -0.273002   0.247911
     2  O   -0.242002   0.267711
     3  O   -0.194784   0.255170
     4  O   -0.290212   0.229208
 Sum of Mulliken charges =  -1.00000   1.00000

 Dipole moment (field-independent basis, Debye):
    X=              0.1101    Y=              0.0261    Z=              0.0000  Tot=              0.1131
 Quadrupole moment (field-independent basis, Debye-Ang):
   XX=            -23.6614   YY=            -38.9912   ZZ=            -23.1995
   XY=             -2.6610   XZ=              0.0000   YZ=              0.0000

 003\CCSD(T)=-300.1575553\RMSD=7.886e-09\PG=CS [SG(O4)]\\@
 Normal termination of Gaussian 16 at Sun Feb 18 00:42:15 2024.
