 Gaussian 16, Revision A.03,
 Gaussian 16:  ES64L-G16RevA.03 25-Dec-2016

 -----------------------------------------------
 #p ROCCSD(T,MaxCyc=200)/cc-pVTZ SCF(MaxCyc=200)
 -----------------------------------------------

 ---------
 O2_O2_211
 ---------
 Symbolic Z-matrix:
 Charge = -1 Multiplicity = 2

                         Standard orientation:
 ---------------------------------------------------------------------
 Center     Atomic      Atomic             Coordinates (Angstroms)
 Number     Number       Type             X           Y           Z
 ---------------------------------------------------------------------
      1          8           0        0.615183   -2.805183    0.000000
      2          8           0       -0.205061   -1.984939    0.000000
      3          8           0       -0.205061    1.815061   -0.000000
      4          8           0       -0.205061    2.975061   -0.000000
 ---------------------------------------------------------------------

 SCF Done:  E(ROHF) =  -299.190828457     A.U. after   46 cycles
 E2 =    -0.9202243472D+00 EUMP2 =    -0.30011105280467D+03
 CCSD(T)
 CCSD(T)= -0.30014754393D+03

 The electronic state is 2-A".
 Alpha  occ. eigenvalues --  -20.61708 -20.61306 -20.24779 -20.24702  -1.58546
 Alpha  occ. eigenvalues --   -1.27834  -0.97172  -0.70909  -0.67297  -0.63744
 Alpha  occ. eigenvalues --   -0.56119  -0.39308  -0.35760  -0.33826  -0.33376
 Alpha  occ. eigenvalues --   -0.05985  -0.01940
 Alpha virt. eigenvalues --    0.16286   0.54316   0.72002   0.81652   0.81975
 Alpha virt. eigenvalues --    0.84881   0.91425   0.93536   0.95932   0.99219
 Alpha virt. eigenvalues --    1.02732   1.04947   1.08670   1.13443   1.15702

 Mulliken charges and spin densities:
               1          2
     1  O   -0.041501   0.000016
     2  O    0.041194   0.000025
     3  O   -0.500837   0.499460
     4  O   -0.498856   0.500499
 Sum of Mulliken charges =  -1.00000   1.00000

 Dipole moment (field-independent basis, Debye):
    X=              0.8297    Y=            -11.2069    Z=              0.0000  Tot=             11.2375
 Quadrupole moment (field-independent basis, Debye-Ang):
   XX=            -23.4333   YY=            -54.4733   ZZ=            -20.5998
   XY=              2.6850   XZ=             -0.0000   YZ=              0.0000

 507\CCSD=-300.111877\CCSD(T)=-300.1475439\RMSD=7.268e-09\PG=CS [SG(O4)
 Normal termination of Gaussian 16 at Sun Feb 18 02:43:28 2024.
