 Gaussian 16, Revision A.03,
 Gaussian 16:  ES64L-G16RevA.03 25-Dec-2016

 -----------------------------------------------
 #p ROCCSD(T,MaxCyc=200)/cc-pVTZ SCF(MaxCyc=200)
 -----------------------------------------------

 ---------
 O2_O2_182
 ---------
 Symbolic Z-matrix:
 Charge = -1 Multiplicity = 2

                         Standard orientation:
 ---------------------------------------------------------------------
 Center     Atomic      Atomic             Coordinates (Angstroms)
 Number     Number       Type             X           Y           Z
 ---------------------------------------------------------------------
      1          8           0       -0.870000   -1.990000    0.000000
      2          8           0        0.290000   -1.990000    0.000000
      3          8           0        0.290000    1.410000    0.000000
      4          8           0        0.290000    2.570000    0.000000
 ---------------------------------------------------------------------

 SCF Done:  E(ROHF) =  -299.168736134     A.U. after   15 cycles
 E2 =    -0.9578607137D+00 EUMP2 =    -0.30012659684753D+03
 CCSD(T)
 CCSD(T)= -0.30015249903D+03

 The electronic state is 2-A'.
 Alpha  occ. eigenvalues --  -20.43415 -20.42590 -20.42299 -20.42174  -1.42866
 Alpha  occ. eigenvalues --   -1.42091  -0.83575  -0.83048  -0.51254  -0.50508
 Alpha  occ. eigenvalues --   -0.48482  -0.47859  -0.46987  -0.46265  -0.17359
 Alpha  occ. eigenvalues --   -0.16688  -0.00608
 Alpha virt. eigenvalues --    0.13490   0.63600   0.65763   0.87363   0.92352
 Alpha virt. eigenvalues --    0.92728   0.94662   0.95153   1.00039   1.03325
 Alpha virt. eigenvalues --    1.04520   1.06077   1.06133   1.06535   1.10774

 Mulliken charges and spin densities:
               1          2
     1  O   -0.263805   0.250159
     2  O   -0.244771   0.259233
     3  O   -0.208588   0.256327
     4  O   -0.282836   0.234281
 Sum of Mulliken charges =  -1.00000   1.00000

 Dipole moment (field-independent basis, Debye):
    X=              0.0635    Y=             -0.0156    Z=              0.0000  Tot=              0.0653
 Quadrupole moment (field-independent basis, Debye-Ang):
   XX=            -23.5903   YY=            -43.5105   ZZ=            -23.1939
   XY=             -2.9900   XZ=              0.0000   YZ=              0.0000

 4\CCSD(T)=-300.152499\RMSD=5.695e-09\PG=CS [SG(O4)]\\@
 Normal termination of Gaussian 16 at Sun Feb 18 01:55:23 2024.
