 Gaussian 16, Revision A.03,
 Gaussian 16:  ES64L-G16RevA.03 25-Dec-2016

 -----------------------------------------------
 #p ROCCSD(T,MaxCyc=200)/cc-pVTZ SCF(MaxCyc=200)
 -----------------------------------------------

 -------
 O2_O2_0
 -------
 Symbolic Z-matrix:
 Charge = -1 Multiplicity = 2

                         Standard orientation:
 ---------------------------------------------------------------------
 Center     Atomic      Atomic             Coordinates (Angstroms)
 Number     Number       Type             X           Y           Z
 ---------------------------------------------------------------------
      1          8           0        0.000000    0.000000    1.660000
      2          8           0        0.000000    0.000000    0.500000
      3          8           0        0.000000    0.000000   -0.500000
      4          8           0        0.000000    0.000000   -1.660000
 ---------------------------------------------------------------------

 SCF Done:  E(ROHF) =  -298.576345294     A.U. after   11 cycles
 E2 =    -0.9074612446D+00 EUMP2 =    -0.29948380653884D+03
 CCSD(T)
 CCSD(T)= -0.29952402750D+03

 Unable to determine electronic state:  an orbital has unidentified symmetry.
 Alpha  occ. eigenvalues --  -20.42177 -20.41996 -20.29836 -20.29836  -1.66643
 Alpha  occ. eigenvalues --   -1.33176  -1.18527  -0.72211  -0.69049  -0.60956
 Alpha  occ. eigenvalues --   -0.52666  -0.41317  -0.39372  -0.21372  -0.20271
 Alpha  occ. eigenvalues --   -0.00159   0.02374
 Alpha virt. eigenvalues --    0.52604   0.71501   0.77702   0.83156   0.88826
 Alpha virt. eigenvalues --    0.90181   0.93888   1.01843   1.02520   1.10813
 Alpha virt. eigenvalues --    1.11621   1.15922   1.26076   1.27565   1.44141

 Mulliken charges and spin densities:
               1          2
     1  O   -0.558095   0.107404
     2  O    0.058095   0.392596
     3  O    0.058095   0.392596
     4  O   -0.558095   0.107404
 Sum of Mulliken charges =  -1.00000   1.00000

 Dipole moment (field-independent basis, Debye):
    X=             -0.0000    Y=              0.0000    Z=             -0.0000  Tot=              0.0000
 Quadrupole moment (field-independent basis, Debye-Ang):
   XX=            -21.8359   YY=            -21.1560   ZZ=            -41.2637
   XY=              0.0000   XZ=              0.0000   YZ=              0.0000

 \PMP2-0=-299.4838065\MP4SDQ=-299.491748\CCSD=-299.491097\CCSD(T)=-299.
 Normal termination of Gaussian 16 at Sat Feb 17 20:11:28 2024.
