 Gaussian 16, Revision A.03,
 Gaussian 16:  ES64L-G16RevA.03 25-Dec-2016

 -----------------------------------------------
 #p ROCCSD(T,MaxCyc=200)/cc-pVTZ SCF(MaxCyc=200)
 -----------------------------------------------

 --------
 O2_O2_68
 --------
 Symbolic Z-matrix:
 Charge = -1 Multiplicity = 2

                         Standard orientation:
 ---------------------------------------------------------------------
 Center     Atomic      Atomic             Coordinates (Angstroms)
 Number     Number       Type             X           Y           Z
 ---------------------------------------------------------------------
      1          8           0       -0.870000   -1.230000    0.000000
      2          8           0        0.290000   -1.230000    0.000000
      3          8           0        0.290000    0.650000    0.000000
      4          8           0        0.290000    1.810000    0.000000
 ---------------------------------------------------------------------

 SCF Done:  E(ROHF) =  -299.165045232     A.U. after   25 cycles
 E2 =    -0.9532470271D+00 EUMP2 =    -0.30011829225945D+03
 CCSD(T)
 CCSD(T)= -0.30016756135D+03

 The electronic state is 2-A".
 Alpha  occ. eigenvalues --  -20.48373 -20.46060 -20.30541 -20.30353  -1.45301
 Alpha  occ. eigenvalues --   -1.33281  -0.85466  -0.77026  -0.54415  -0.51104
 Alpha  occ. eigenvalues --   -0.47803  -0.44538  -0.40180  -0.32459  -0.20397
 Alpha  occ. eigenvalues --   -0.11271  -0.05873
 Alpha virt. eigenvalues --    0.29130   0.64152   0.75539   0.90054   0.91080
 Alpha virt. eigenvalues --    0.93708   0.99679   1.00811   1.02678   1.03631
 Alpha virt. eigenvalues --    1.08468   1.11076   1.14244   1.19376   1.23196

 Mulliken charges and spin densities:
               1          2
     1  O   -0.148478   0.000439
     2  O   -0.040356   0.001226
     3  O   -0.381241   0.450461
     4  O   -0.429924   0.547874
 Sum of Mulliken charges =  -1.00000   1.00000

 Dipole moment (field-independent basis, Debye):
    X=             -0.4624    Y=             -3.4313    Z=              0.0000  Tot=              3.4623
 Quadrupole moment (field-independent basis, Debye-Ang):
   XX=            -24.1467   YY=            -32.6416   ZZ=            -22.2069
   XY=             -2.2306   XZ=              0.0000   YZ=              0.0000

 51\CCSD(T)=-300.1675614\RMSD=9.643e-09\PG=CS [SG(O4)]\\@
 Normal termination of Gaussian 16 at Sat Feb 17 22:15:10 2024.
