 Gaussian 16, Revision A.03,
 Gaussian 16:  ES64L-G16RevA.03 25-Dec-2016

 -----------------------------------------------
 #p ROCCSD(T,MaxCyc=200)/cc-pVTZ SCF(MaxCyc=200)
 -----------------------------------------------

 ---------
 O2_O2_135
 ---------
 Symbolic Z-matrix:
 Charge = -1 Multiplicity = 2

                         Standard orientation:
 ---------------------------------------------------------------------
 Center     Atomic      Atomic             Coordinates (Angstroms)
 Number     Number       Type             X           Y           Z
 ---------------------------------------------------------------------
      1          8           0        0.000000    0.000000    2.560000
      2          8           0        0.000000    0.000000    1.400000
      3          8           0        0.000000    0.000000   -1.400000
      4          8           0        0.000000    0.000000   -2.560000
 ---------------------------------------------------------------------

 SCF Done:  E(ROHF) =  -299.168338692     A.U. after   12 cycles
 E2 =    -0.9578285471D+00 EUMP2 =    -0.30012616723918D+03
 CCSD(T)
 CCSD(T)= -0.30015260090D+03

 Unable to determine electronic state:  an orbital has unidentified symmetry.
 Alpha  occ. eigenvalues --  -20.42638 -20.42637 -20.41658 -20.41658  -1.42134
 Alpha  occ. eigenvalues --   -1.42046  -0.83372  -0.82215  -0.50575  -0.50354
 Alpha  occ. eigenvalues --   -0.48551  -0.46750  -0.46433  -0.45893  -0.16920
 Alpha  occ. eigenvalues --   -0.16164  -0.00691
 Alpha virt. eigenvalues --    0.14599   0.64344   0.71914   0.90082   0.91347
 Alpha virt. eigenvalues --    0.92004   0.94516   0.95250   1.01532   1.02001
 Alpha virt. eigenvalues --    1.03745   1.08434   1.11915   1.12341   1.12527

 Mulliken charges and spin densities:
               1          2
     1  O   -0.297852   0.237404
     2  O   -0.202148   0.262596
     3  O   -0.202148   0.262596
     4  O   -0.297852   0.237404
 Sum of Mulliken charges =  -1.00000   1.00000

 Dipole moment (field-independent basis, Debye):
    X=             -0.0000    Y=             -0.0000    Z=              0.0000  Tot=              0.0000
 Quadrupole moment (field-independent basis, Debye-Ang):
   XX=            -20.7385   YY=            -23.1973   ZZ=            -46.9641
   XY=              0.0000   XZ=              0.0000   YZ=              0.0000

 387\PMP2-0=-300.1261672\MP4SDQ=-300.1146189\CCSD=-300.1113593\CCSD(T)=
 Normal termination of Gaussian 16 at Sun Feb 18 00:27:04 2024.
