 Gaussian 16, Revision A.03,
 Gaussian 16:  ES64L-G16RevA.03 25-Dec-2016

 -----------------------------------------------
 #p ROCCSD(T,MaxCyc=200)/cc-pVTZ SCF(MaxCyc=200)
 -----------------------------------------------

 --------
 O2_O2_46
 --------
 Symbolic Z-matrix:
 Charge = -1 Multiplicity = 2

                         Standard orientation:
 ---------------------------------------------------------------------
 Center     Atomic      Atomic             Coordinates (Angstroms)
 Number     Number       Type             X           Y           Z
 ---------------------------------------------------------------------
      1          8           0        0.615183   -1.705183    0.000000
      2          8           0       -0.205061   -0.884939    0.000000
      3          8           0       -0.205061    0.715061   -0.000000
      4          8           0       -0.205061    1.875061   -0.000000
 ---------------------------------------------------------------------

 SCF Done:  E(ROHF) =  -299.111092264     A.U. after   21 cycles
 E2 =    -0.9470414218D+00 EUMP2 =    -0.30005813368581D+03
 CCSD(T)
 CCSD(T)= -0.30010199138D+03

 The electronic state is 2-A".
 Alpha  occ. eigenvalues --  -20.49770 -20.41700 -20.31266 -20.31109  -1.44936
 Alpha  occ. eigenvalues --   -1.34307  -0.91667  -0.73884  -0.54484  -0.52387
 Alpha  occ. eigenvalues --   -0.47169  -0.45471  -0.40669  -0.29170  -0.20565
 Alpha  occ. eigenvalues --   -0.10919  -0.07863
 Alpha virt. eigenvalues --    0.32061   0.69116   0.75914   0.91799   0.92690
 Alpha virt. eigenvalues --    0.95080   0.99301   1.01361   1.02351   1.05256
 Alpha virt. eigenvalues --    1.06102   1.13128   1.15843   1.20024   1.25792

 Mulliken charges and spin densities:
               1          2
     1  O   -0.299526   0.002122
     2  O    0.073353   0.005449
     3  O   -0.343103   0.447493
     4  O   -0.430724   0.544936
 Sum of Mulliken charges =  -1.00000   1.00000

 Dipole moment (field-independent basis, Debye):
    X=             -0.0660    Y=             -2.6709    Z=              0.0000  Tot=              2.6717
 Quadrupole moment (field-independent basis, Debye-Ang):
   XX=            -23.3912   YY=            -36.4305   ZZ=            -22.0842
   XY=              3.3733   XZ=             -0.0000   YZ=              0.0000

 8355\CCSD=-300.0555663\CCSD(T)=-300.1019914\RMSD=5.444e-09\PG=CS [SG(O
 Normal termination of Gaussian 16 at Sat Feb 17 21:29:16 2024.
