 Gaussian 16, Revision A.03,
 Gaussian 16:  ES64L-G16RevA.03 25-Dec-2016

 ------------------
 #p CCSD(T)/cc-pVTZ
 ------------------

 ----
 H2_0
 ----
 Symbolic Z-matrix:
 Charge = -1 Multiplicity = 2

                         Standard orientation:
 ---------------------------------------------------------------------
 Center     Atomic      Atomic             Coordinates (Angstroms)
 Number     Number       Type             X           Y           Z
 ---------------------------------------------------------------------
      1          1           0        0.000000    0.000000    0.400000
      2          1           0        0.000000    0.000000   -0.400000
 ---------------------------------------------------------------------

 SCF Done:  E(UHF) = -0.978157214714     A.U. after   10 cycles
 E2 =    -0.3743466865D-01 EUMP2 =    -0.10155918833672D+01
 CCSD(T)
 CCSD(T)= -0.10246845938D+01

 The electronic state is 2-SGU.
 Alpha  occ. eigenvalues --   -0.28566   0.14512
 Alpha virt. eigenvalues --    0.55155   0.87421   0.97960   0.97960   1.35293
 Alpha virt. eigenvalues --    1.38459   1.38459   1.80136   2.66960   2.74372
 Alpha virt. eigenvalues --    3.48590   3.48590   3.68862   3.68862   3.97221

  Beta  occ. eigenvalues --   -0.25395
  Beta virt. eigenvalues --    0.44853   0.57662   0.93760   0.99420   0.99420
  Beta virt. eigenvalues --    1.41536   1.42893   1.42893   1.83425   2.68737
  Beta virt. eigenvalues --    2.74572   3.48904   3.48904   3.68686   3.68686

 Mulliken charges and spin densities:
               1          2
     1  H   -0.500000   0.500000
     2  H   -0.500000   0.500000
 Sum of Mulliken charges =  -1.00000   1.00000

 Dipole moment (field-independent basis, Debye):
    X=             -0.0000    Y=             -0.0000    Z=              0.0000  Tot=              0.0000
 Quadrupole moment (field-independent basis, Debye-Ang):
   XX=             -5.6128   YY=             -5.6128   ZZ=            -11.5739
   XY=              0.0000   XZ=              0.0000   YZ=             -0.0000

 1.0226226\MP4SDQ=-1.0237929\CCSD=-1.0243059\CCSD(T)=-1.0246846\S2=0.75
 Normal termination of Gaussian 16 at Fri Feb  9 17:59:24 2024.
