 Gaussian 16, Revision A.03,
 Gaussian 16:  ES64L-G16RevA.03 25-Dec-2016

 ------------------
 #p CCSD(T)/cc-pVTZ
 ------------------

 -----
 H2_12
 -----
 Symbolic Z-matrix:
 Charge = -1 Multiplicity = 2

                         Standard orientation:
 ---------------------------------------------------------------------
 Center     Atomic      Atomic             Coordinates (Angstroms)
 Number     Number       Type             X           Y           Z
 ---------------------------------------------------------------------
      1          1           0        0.000000    0.000000    0.580000
      2          1           0        0.000000    0.000000   -0.580000
 ---------------------------------------------------------------------

 SCF Done:  E(UHF) = -0.988169880987     A.U. after   10 cycles
 E2 =    -0.3671186743D-01 EUMP2 =    -0.10248817484194D+01
 CCSD(T)
 CCSD(T)= -0.10352462305D+01

 The electronic state is 2-SGU.
 Alpha  occ. eigenvalues --   -0.22152   0.06980
 Alpha virt. eigenvalues --    0.60284   0.74398   0.97163   0.97163   1.22709
 Alpha virt. eigenvalues --    1.30740   1.30740   1.74364   2.89684   3.02920
 Alpha virt. eigenvalues --    3.47165   3.47165   3.60955   3.60955   3.61005

  Beta  occ. eigenvalues --   -0.13486
  Beta virt. eigenvalues --    0.40390   0.62594   0.83563   0.99390   0.99390
  Beta virt. eigenvalues --    1.29866   1.36066   1.36066   1.78616   2.92607
  Beta virt. eigenvalues --    3.06473   3.48422   3.48422   3.62351   3.62351

 Mulliken charges and spin densities:
               1          2
     1  H   -0.500000   0.500000
     2  H   -0.500000   0.500000
 Sum of Mulliken charges =  -1.00000   1.00000

 Dipole moment (field-independent basis, Debye):
    X=             -0.0000    Y=             -0.0000    Z=             -0.0000  Tot=              0.0000
 Quadrupole moment (field-independent basis, Debye-Ang):
   XX=             -5.7906   YY=             -5.7906   ZZ=            -10.5837
   XY=             -0.0000   XZ=              0.0000   YZ=              0.0000

 0=-1.0324947\MP4SDQ=-1.0341327\CCSD=-1.034825\CCSD(T)=-1.0352462\S2=0.
 Normal termination of Gaussian 16 at Fri Feb  9 17:59:39 2024.
