 Gaussian 16, Revision A.03,
 Gaussian 16:  ES64L-G16RevA.03 25-Dec-2016

 ------------------
 #p CCSD(T)/cc-pVTZ
 ------------------

 -----
 H2_19
 -----
 Symbolic Z-matrix:
 Charge = -1 Multiplicity = 2

                         Standard orientation:
 ---------------------------------------------------------------------
 Center     Atomic      Atomic             Coordinates (Angstroms)
 Number     Number       Type             X           Y           Z
 ---------------------------------------------------------------------
      1          1           0        0.000000    0.000000    0.685000
      2          1           0        0.000000    0.000000   -0.685000
 ---------------------------------------------------------------------

 SCF Done:  E(UHF) = -0.988545448927     A.U. after   10 cycles
 E2 =    -0.3503885800D-01 EUMP2 =    -0.10235843069247D+01
 CCSD(T)
 CCSD(T)= -0.10345478316D+01

 The electronic state is 2-SGU.
 Alpha  occ. eigenvalues --   -0.20248   0.02405
 Alpha virt. eigenvalues --    0.62300   0.69919   0.97419   0.97419   1.14980
 Alpha virt. eigenvalues --    1.25840   1.25840   1.68280   2.90058   3.03649
 Alpha virt. eigenvalues --    3.46439   3.46439   3.47286   3.70077   3.70077

  Beta  occ. eigenvalues --   -0.08701
  Beta virt. eigenvalues --    0.37843   0.65425   0.80037   1.00141   1.00141
  Beta virt. eigenvalues --    1.22316   1.31474   1.31474   1.73077   2.95393
  Beta virt. eigenvalues --    3.08447   3.48576   3.48576   3.49020   3.72149

 Mulliken charges and spin densities:
               1          2
     1  H   -0.500000   0.500000
     2  H   -0.500000   0.500000
 Sum of Mulliken charges =  -1.00000   1.00000

 Dipole moment (field-independent basis, Debye):
    X=             -0.0000    Y=              0.0000    Z=             -0.0000  Tot=              0.0000
 Quadrupole moment (field-independent basis, Debye-Ang):
   XX=             -5.8615   YY=             -5.8615   ZZ=            -10.3046
   XY=              0.0000   XZ=              0.0000   YZ=             -0.0000

 =-1.0315778\MP4SDQ=-1.0331828\CCSD=-1.0341566\CCSD(T)=-1.0345478\S2=0.
 Normal termination of Gaussian 16 at Fri Feb  9 17:59:48 2024.
