 Gaussian 16, Revision A.03,
 Gaussian 16:  ES64L-G16RevA.03 25-Dec-2016

 ------------------
 #p CCSD(T)/cc-pVTZ
 ------------------

 -----
 H2_10
 -----
 Symbolic Z-matrix:
 Charge = -1 Multiplicity = 2

                         Standard orientation:
 ---------------------------------------------------------------------
 Center     Atomic      Atomic             Coordinates (Angstroms)
 Number     Number       Type             X           Y           Z
 ---------------------------------------------------------------------
      1          1           0        0.000000    0.000000    0.550000
      2          1           0        0.000000    0.000000   -0.550000
 ---------------------------------------------------------------------

 SCF Done:  E(UHF) = -0.987867982153     A.U. after   10 cycles
 E2 =    -0.3703740429D-01 EUMP2 =    -0.10249053864430D+01
 CCSD(T)
 CCSD(T)= -0.10350863193D+01

 The electronic state is 2-SGU.
 Alpha  occ. eigenvalues --   -0.22898   0.08314
 Alpha virt. eigenvalues --    0.59566   0.76100   0.97151   0.97151   1.24962
 Alpha virt. eigenvalues --    1.32136   1.32136   1.75692   2.87952   3.00238
 Alpha virt. eigenvalues --    3.49643   3.49643   3.58072   3.58072   3.67591

  Beta  occ. eigenvalues --   -0.15168
  Beta virt. eigenvalues --    0.41137   0.61748   0.84865   0.99241   0.99241
  Beta virt. eigenvalues --    1.32006   1.37345   1.37345   1.79771   2.90241
  Beta virt. eigenvalues --    3.03422   3.50625   3.50625   3.59262   3.59262

 Mulliken charges and spin densities:
               1          2
     1  H   -0.500000   0.500000
     2  H   -0.500000   0.500000
 Sum of Mulliken charges =  -1.00000   1.00000

 Dipole moment (field-independent basis, Debye):
    X=             -0.0000    Y=             -0.0000    Z=              0.0000  Tot=              0.0000
 Quadrupole moment (field-independent basis, Debye-Ang):
   XX=             -5.7703   YY=             -5.7703   ZZ=            -10.7149
   XY=             -0.0000   XZ=              0.0000   YZ=              0.0000

 1.0324365\MP4SDQ=-1.034017\CCSD=-1.0346622\CCSD(T)=-1.0350863\S2=0.754
 Normal termination of Gaussian 16 at Fri Feb  9 17:59:37 2024.
