 Gaussian 16, Revision A.03,
 Gaussian 16:  ES64L-G16RevA.03 25-Dec-2016

 ------------------
 #p CCSD(T)/cc-pVTZ
 ------------------

 ----
 H2_1
 ----
 Symbolic Z-matrix:
 Charge = -1 Multiplicity = 2

                         Standard orientation:
 ---------------------------------------------------------------------
 Center     Atomic      Atomic             Coordinates (Angstroms)
 Number     Number       Type             X           Y           Z
 ---------------------------------------------------------------------
      1          1           0        0.000000    0.000000    0.415000
      2          1           0        0.000000    0.000000   -0.415000
 ---------------------------------------------------------------------

 SCF Done:  E(UHF) = -0.980551049049     A.U. after   10 cycles
 E2 =    -0.3747597736D-01 EUMP2 =    -0.10180270264126D+01
 CCSD(T)
 CCSD(T)= -0.10272406513D+01

 The electronic state is 2-SGU.
 Alpha  occ. eigenvalues --   -0.27827   0.13957
 Alpha virt. eigenvalues --    0.55641   0.86161   0.97795   0.97795   1.34410
 Alpha virt. eigenvalues --    1.37926   1.37926   1.79594   2.69572   2.75971
 Alpha virt. eigenvalues --    3.48883   3.48883   3.66998   3.66998   3.95415

  Beta  occ. eigenvalues --   -0.24255
  Beta virt. eigenvalues --    0.44501   0.58049   0.92745   0.99313   0.99313
  Beta virt. eigenvalues --    1.40739   1.42453   1.42453   1.82976   2.71435
  Beta virt. eigenvalues --    2.76297   3.49262   3.49262   3.66903   3.66903

 Mulliken charges and spin densities:
               1          2
     1  H   -0.500000   0.500000
     2  H   -0.500000   0.500000
 Sum of Mulliken charges =  -1.00000   1.00000

 Dipole moment (field-independent basis, Debye):
    X=             -0.0000    Y=              0.0000    Z=             -0.0000  Tot=              0.0000
 Quadrupole moment (field-independent basis, Debye-Ang):
   XX=             -5.6351   YY=             -5.6351   ZZ=            -11.4779
   XY=              0.0000   XZ=              0.0000   YZ=             -0.0000

 .0251236\MP4SDQ=-1.0263276\CCSD=-1.0268531\CCSD(T)=-1.0272407\S2=0.755
 Normal termination of Gaussian 16 at Fri Feb  9 17:59:25 2024.
