 Gaussian 16, Revision A.03,
 Gaussian 16:  ES64L-G16RevA.03 25-Dec-2016

 ------------------
 #p CCSD(T)/cc-pVTZ
 ------------------

 -----
 H2_16
 -----
 Symbolic Z-matrix:
 Charge = -1 Multiplicity = 2

                         Standard orientation:
 ---------------------------------------------------------------------
 Center     Atomic      Atomic             Coordinates (Angstroms)
 Number     Number       Type             X           Y           Z
 ---------------------------------------------------------------------
      1          1           0        0.000000    0.000000    0.640000
      2          1           0        0.000000    0.000000   -0.640000
 ---------------------------------------------------------------------

 SCF Done:  E(UHF) = -0.988471766867     A.U. after   10 cycles
 E2 =    -0.3583665062D-01 EUMP2 =    -0.10243084174888D+01
 CCSD(T)
 CCSD(T)= -0.10350213051D+01

 The electronic state is 2-SGU.
 Alpha  occ. eigenvalues --   -0.20947   0.04329
 Alpha virt. eigenvalues --    0.61529   0.71584   0.97276   0.97276   1.18242
 Alpha virt. eigenvalues --    1.27930   1.27930   1.71124   2.91148   3.04348
 Alpha virt. eigenvalues --    3.45225   3.45225   3.50933   3.66508   3.66508

  Beta  occ. eigenvalues --   -0.10544
  Beta virt. eigenvalues --    0.38921   0.64248   0.81382   0.99785   0.99785
  Beta virt. eigenvalues --    1.25544   1.33451   1.33451   1.75706   2.95484
  Beta virt. eigenvalues --    3.08632   3.47008   3.47008   3.52765   3.68307

 Mulliken charges and spin densities:
               1          2
     1  H   -0.500000   0.500000
     2  H   -0.500000   0.500000
 Sum of Mulliken charges =  -1.00000   1.00000

 Dipole moment (field-independent basis, Debye):
    X=             -0.0000    Y=              0.0000    Z=             -0.0000  Tot=              0.0000
 Quadrupole moment (field-independent basis, Debye-Ang):
   XX=             -5.8303   YY=             -5.8303   ZZ=            -10.3868
   XY=             -0.0000   XZ=              0.0000   YZ=              0.0000

 0=-1.0321249\MP4SDQ=-1.0337835\CCSD=-1.0346146\CCSD(T)=-1.0350213\S2=0
 Normal termination of Gaussian 16 at Fri Feb  9 17:59:44 2024.
