 Gaussian 16, Revision A.03,
 Gaussian 16:  ES64L-G16RevA.03 25-Dec-2016

 ------------------
 #p CCSD(T)/cc-pVTZ
 ------------------

 -----
 H2_17
 -----
 Symbolic Z-matrix:
 Charge = -1 Multiplicity = 2

                         Standard orientation:
 ---------------------------------------------------------------------
 Center     Atomic      Atomic             Coordinates (Angstroms)
 Number     Number       Type             X           Y           Z
 ---------------------------------------------------------------------
      1          1           0        0.000000    0.000000    0.655000
      2          1           0        0.000000    0.000000   -0.655000
 ---------------------------------------------------------------------

 SCF Done:  E(UHF) = -0.988509028104     A.U. after   10 cycles
 E2 =    -0.3558082161D-01 EUMP2 =    -0.10240898497108D+01
 CCSD(T)
 CCSD(T)= -0.10348871721D+01

 The electronic state is 2-SGU.
 Alpha  occ. eigenvalues --   -0.20696   0.03679
 Alpha virt. eigenvalues --    0.61801   0.70990   0.97319   0.97319   1.17144
 Alpha virt. eigenvalues --    1.27230   1.27230   1.70210   2.90997   3.04218
 Alpha virt. eigenvalues --    3.45391   3.45391   3.49315   3.67770   3.67770

  Beta  occ. eigenvalues --   -0.09896
  Beta virt. eigenvalues --    0.38560   0.64648   0.80910   0.99899   0.99899
  Beta virt. eigenvalues --    1.24465   1.32792   1.32792   1.74867   2.95685
  Beta virt. eigenvalues --    3.08678   3.47296   3.47296   3.51101   3.69664

 Mulliken charges and spin densities:
               1          2
     1  H   -0.500000   0.500000
     2  H   -0.500000   0.500000
 Sum of Mulliken charges =  -1.00000   1.00000

 Dipole moment (field-independent basis, Debye):
    X=             -0.0000    Y=              0.0000    Z=             -0.0000  Tot=              0.0000
 Quadrupole moment (field-independent basis, Debye-Ang):
   XX=             -5.8406   YY=             -5.8406   ZZ=            -10.3529
   XY=             -0.0000   XZ=              0.0000   YZ=             -0.0000

 =-1.0319641\MP4SDQ=-1.0336101\CCSD=-1.0344854\CCSD(T)=-1.0348872\S2=0.
 Normal termination of Gaussian 16 at Fri Feb  9 17:59:46 2024.
