 Gaussian 16, Revision A.03,
 Gaussian 16:  ES64L-G16RevA.03 25-Dec-2016

 ------------------
 #p CCSD(T)/cc-pVTZ
 ------------------

 -----
 H2_15
 -----
 Symbolic Z-matrix:
 Charge = -1 Multiplicity = 2

                         Standard orientation:
 ---------------------------------------------------------------------
 Center     Atomic      Atomic             Coordinates (Angstroms)
 Number     Number       Type             X           Y           Z
 ---------------------------------------------------------------------
      1          1           0        0.000000    0.000000    0.625000
      2          1           0        0.000000    0.000000   -0.625000
 ---------------------------------------------------------------------

 SCF Done:  E(UHF) = -0.988421311663     A.U. after   10 cycles
 E2 =    -0.3607959537D-01 EUMP2 =    -0.10245009070300D+01
 CCSD(T)
 CCSD(T)= -0.10351284256D+01

 The electronic state is 2-SGU.
 Alpha  occ. eigenvalues --   -0.21216   0.04985
 Alpha virt. eigenvalues --    0.61242   0.72219   0.97239   0.97239   1.19348
 Alpha virt. eigenvalues --    1.28633   1.28633   1.72000   2.91080   3.04331
 Alpha virt. eigenvalues --    3.45316   3.45316   3.52944   3.65184   3.65184

  Beta  occ. eigenvalues --   -0.11227
  Beta virt. eigenvalues --    0.39285   0.63842   0.81881   0.99677   0.99677
  Beta virt. eigenvalues --    1.26625   1.34109   1.34109   1.76502   2.95056
  Beta virt. eigenvalues --    3.08436   3.46972   3.46972   3.54824   3.66886

 Mulliken charges and spin densities:
               1          2
     1  H   -0.500000   0.500000
     2  H   -0.500000   0.500000
 Sum of Mulliken charges =  -1.00000   1.00000

 Dipole moment (field-independent basis, Debye):
    X=             -0.0000    Y=              0.0000    Z=              0.0000  Tot=              0.0000
 Quadrupole moment (field-independent basis, Debye-Ang):
   XX=             -5.8203   YY=             -5.8203   ZZ=            -10.4271
   XY=             -0.0000   XZ=              0.0000   YZ=              0.0000

 0=-1.0322617\MP4SDQ=-1.0339266\CCSD=-1.0347173\CCSD(T)=-1.0351284\S2=0
 Normal termination of Gaussian 16 at Fri Feb  9 17:59:43 2024.
