 Gaussian 16, Revision A.03,
 Gaussian 16:  ES64L-G16RevA.03 25-Dec-2016

 ------------------
 #p CCSD(T)/cc-pVTZ
 ------------------

 -----
 H2_13
 -----
 Symbolic Z-matrix:
 Charge = -1 Multiplicity = 2

                         Standard orientation:
 ---------------------------------------------------------------------
 Center     Atomic      Atomic             Coordinates (Angstroms)
 Number     Number       Type             X           Y           Z
 ---------------------------------------------------------------------
      1          1           0        0.000000    0.000000    0.595000
      2          1           0        0.000000    0.000000   -0.595000
 ---------------------------------------------------------------------

 SCF Done:  E(UHF) = -0.988273879663     A.U. after   10 cycles
 E2 =    -0.3651895467D-01 EUMP2 =    -0.10247928343303D+01
 CCSD(T)
 CCSD(T)= -0.10352463467D+01

 The electronic state is 2-SGU.
 Alpha  occ. eigenvalues --   -0.21817   0.06312
 Alpha virt. eigenvalues --    0.60619   0.73624   0.97181   0.97181   1.21584
 Alpha virt. eigenvalues --    1.30039   1.30039   1.73623   2.90330   3.03674
 Alpha virt. eigenvalues --    3.46288   3.46288   3.58023   3.62394   3.62394

  Beta  occ. eigenvalues --   -0.12697
  Beta virt. eigenvalues --    0.40020   0.63014   0.82969   0.99479   0.99479
  Beta virt. eigenvalues --    1.28787   1.35417   1.35417   1.77960   2.93594
  Beta virt. eigenvalues --    3.07412   3.47680   3.47680   3.59981   3.63893

 Mulliken charges and spin densities:
               1          2
     1  H   -0.500000   0.500000
     2  H   -0.500000   0.500000
 Sum of Mulliken charges =  -1.00000   1.00000

 Dipole moment (field-independent basis, Debye):
    X=             -0.0000    Y=             -0.0000    Z=              0.0000  Tot=              0.0000
 Quadrupole moment (field-independent basis, Debye-Ang):
   XX=             -5.8004   YY=             -5.8004   ZZ=            -10.5258
   XY=             -0.0000   XZ=              0.0000   YZ=              0.0000

 0=-1.0324514\MP4SDQ=-1.0341066\CCSD=-1.0348278\CCSD(T)=-1.0352463\S2=0
 Normal termination of Gaussian 16 at Fri Feb  9 17:59:41 2024.
