 Gaussian 16, Revision A.03,
 Gaussian 16:  ES64L-G16RevA.03 25-Dec-2016

 ------------------
 #p CCSD(T)/cc-pVTZ
 ------------------

 -----
 H2_14
 -----
 Symbolic Z-matrix:
 Charge = -1 Multiplicity = 2

                         Standard orientation:
 ---------------------------------------------------------------------
 Center     Atomic      Atomic             Coordinates (Angstroms)
 Number     Number       Type             X           Y           Z
 ---------------------------------------------------------------------
      1          1           0        0.000000    0.000000    0.610000
      2          1           0        0.000000    0.000000   -0.610000
 ---------------------------------------------------------------------

 SCF Done:  E(UHF) = -0.988356239846     A.U. after   10 cycles
 E2 =    -0.3630764979D-01 EUMP2 =    -0.10246638896327D+01
 CCSD(T)
 CCSD(T)= -0.10352050044D+01

 The electronic state is 2-SGU.
 Alpha  occ. eigenvalues --   -0.21506   0.05647
 Alpha virt. eigenvalues --    0.60938   0.72898   0.97207   0.97207   1.20463
 Alpha virt. eigenvalues --    1.29336   1.29336   1.72834   2.90802   3.04124
 Alpha virt. eigenvalues --    3.45670   3.45670   3.55320   3.63808   3.63808

  Beta  occ. eigenvalues --   -0.11944
  Beta virt. eigenvalues --    0.39652   0.63430   0.82409   0.99575   0.99575
  Beta virt. eigenvalues --    1.27707   1.34765   1.34765   1.77255   2.94419
  Beta virt. eigenvalues --    3.08047   3.47195   3.47195   3.57244   3.65410

 Mulliken charges and spin densities:
               1          2
     1  H   -0.500000   0.500000
     2  H   -0.500000   0.500000
 Sum of Mulliken charges =  -1.00000   1.00000

 Dipole moment (field-independent basis, Debye):
    X=             -0.0000    Y=              0.0000    Z=              0.0000  Tot=              0.0000
 Quadrupole moment (field-independent basis, Debye-Ang):
   XX=             -5.8103   YY=             -5.8103   ZZ=            -10.4735
   XY=             -0.0000   XZ=              0.0000   YZ=              0.0000

 0=-1.0323718\MP4SDQ=-1.0340359\CCSD=-1.0347898\CCSD(T)=-1.035205\S2=0.
 Normal termination of Gaussian 16 at Fri Feb  9 17:59:42 2024.
