 Gaussian 16, Revision A.03,
 Gaussian 16:  ES64L-G16RevA.03 25-Dec-2016

 ------------------
 #p CCSD(T)/cc-pVTZ
 ------------------

 -----
 H2_18
 -----
 Symbolic Z-matrix:
 Charge = -1 Multiplicity = 2

                         Standard orientation:
 ---------------------------------------------------------------------
 Center     Atomic      Atomic             Coordinates (Angstroms)
 Number     Number       Type             X           Y           Z
 ---------------------------------------------------------------------
      1          1           0        0.000000    0.000000    0.670000
      2          1           0        0.000000    0.000000   -0.670000
 ---------------------------------------------------------------------

 SCF Done:  E(UHF) = -0.988533619695     A.U. after   10 cycles
 E2 =    -0.3531419183D-01 EUMP2 =    -0.10238478115289D+01
 CCSD(T)
 CCSD(T)= -0.10347286793D+01

 The electronic state is 2-SGU.
 Alpha  occ. eigenvalues --   -0.20464   0.03037
 Alpha virt. eigenvalues --    0.62058   0.70436   0.97367   0.97367   1.16057
 Alpha virt. eigenvalues --    1.26533   1.26533   1.69261   2.90630   3.03976
 Alpha virt. eigenvalues --    3.45801   3.45801   3.48100   3.68962   3.68962

  Beta  occ. eigenvalues --   -0.09282
  Beta virt. eigenvalues --    0.38200   0.65040   0.80462   1.00017   1.00017
  Beta virt. eigenvalues --    1.23389   1.32133   1.32133   1.73990   2.95653
  Beta virt. eigenvalues --    3.08607   3.47825   3.47825   3.49852   3.70947

 Mulliken charges and spin densities:
               1          2
     1  H   -0.500000   0.500000
     2  H   -0.500000   0.500000
 Sum of Mulliken charges =  -1.00000   1.00000

 Dipole moment (field-independent basis, Debye):
    X=             -0.0000    Y=             -0.0000    Z=              0.0000  Tot=              0.0000
 Quadrupole moment (field-independent basis, Debye-Ang):
   XX=             -5.8510   YY=             -5.8510   ZZ=            -10.3255
   XY=             -0.0000   XZ=              0.0000   YZ=             -0.0000

 0=-1.0317813\MP4SDQ=-1.0334091\CCSD=-1.034332\CCSD(T)=-1.0347287\S2=0.
 Normal termination of Gaussian 16 at Fri Feb  9 17:59:47 2024.
