 Gaussian 16, Revision A.03,
 Gaussian 16:  ES64L-G16RevA.03 25-Dec-2016

 ------------------
 #p CCSD(T)/cc-pVTZ
 ------------------

 -----
 H2_26
 -----
 Symbolic Z-matrix:
 Charge = -1 Multiplicity = 2

                         Standard orientation:
 ---------------------------------------------------------------------
 Center     Atomic      Atomic             Coordinates (Angstroms)
 Number     Number       Type             X           Y           Z
 ---------------------------------------------------------------------
      1          1           0        0.000000    0.000000    0.790000
      2          1           0        0.000000    0.000000   -0.790000
 ---------------------------------------------------------------------

 SCF Done:  E(UHF) = -0.988214559755     A.U. after   10 cycles
 E2 =    -0.3302576743D-01 EUMP2 =    -0.10212403271832D+01
 CCSD(T)
 CCSD(T)= -0.10327538366D+01

 The electronic state is 2-SGU.
 Alpha  occ. eigenvalues --   -0.19120  -0.01703
 Alpha virt. eigenvalues --    0.63633   0.67152   0.97966   0.97966   1.07752
 Alpha virt. eigenvalues --    1.21150   1.21150   1.60736   2.82976   3.00288
 Alpha virt. eigenvalues --    3.50171   3.55295   3.55295   3.75566   3.75566

  Beta  occ. eigenvalues --   -0.05446
  Beta virt. eigenvalues --    0.35418   0.67875   0.77575   1.01190   1.01190
  Beta virt. eigenvalues --    1.14912   1.26961   1.26961   1.65905   2.89702
  Beta virt. eigenvalues --    3.06122   3.52350   3.58059   3.58059   3.78149

 Mulliken charges and spin densities:
               1          2
     1  H   -0.500000   0.500000
     2  H   -0.500000   0.500000
 Sum of Mulliken charges =  -1.00000   1.00000

 Dipole moment (field-independent basis, Debye):
    X=             -0.0000    Y=             -0.0000    Z=             -0.0000  Tot=              0.0000
 Quadrupole moment (field-independent basis, Debye-Ang):
   XX=             -5.9368   YY=             -5.9368   ZZ=            -10.3389
   XY=              0.0000   XZ=              0.0000   YZ=             -0.0000

 0=-1.0296444\MP4SDQ=-1.0310115\CCSD=-1.0324002\CCSD(T)=-1.0327538\S2=0
 Normal termination of Gaussian 16 at Fri Feb  9 17:59:57 2024.
