 Gaussian 16, Revision A.03,
 Gaussian 16:  ES64L-G16RevA.03 25-Dec-2016

 ------------------
 #p CCSD(T)/cc-pVTZ
 ------------------

 -----
 H2_20
 -----
 Symbolic Z-matrix:
 Charge = -1 Multiplicity = 2

                         Standard orientation:
 ---------------------------------------------------------------------
 Center     Atomic      Atomic             Coordinates (Angstroms)
 Number     Number       Type             X           Y           Z
 ---------------------------------------------------------------------
      1          1           0        0.000000    0.000000    0.700000
      2          1           0        0.000000    0.000000   -0.700000
 ---------------------------------------------------------------------

 SCF Done:  E(UHF) = -0.988544026952     A.U. after   10 cycles
 E2 =    -0.3475687418D-01 EUMP2 =    -0.10233009011354D+01
 CCSD(T)
 CCSD(T)= -0.10343461639D+01

 The electronic state is 2-SGU.
 Alpha  occ. eigenvalues --   -0.20048   0.01783
 Alpha virt. eigenvalues --    0.62529   0.69437   0.97478   0.97478   1.13915
 Alpha virt. eigenvalues --    1.25151   1.25151   1.67269   2.89306   3.03259
 Alpha virt. eigenvalues --    3.46854   3.47284   3.47284   3.71110   3.71110

  Beta  occ. eigenvalues --   -0.08152
  Beta virt. eigenvalues --    0.37489   0.65802   0.79633   1.00271   1.00271
  Beta virt. eigenvalues --    1.21246   1.30818   1.30818   1.72130   2.94923
  Beta virt. eigenvalues --    3.08219   3.48592   3.49529   3.49529   3.73267

 Mulliken charges and spin densities:
               1          2
     1  H   -0.500000   0.500000
     2  H   -0.500000   0.500000
 Sum of Mulliken charges =  -1.00000   1.00000

 Dipole moment (field-independent basis, Debye):
    X=             -0.0000    Y=             -0.0000    Z=              0.0000  Tot=              0.0000
 Quadrupole moment (field-independent basis, Debye-Ang):
   XX=             -5.8722   YY=             -5.8722   ZZ=            -10.2902
   XY=              0.0000   XZ=              0.0000   YZ=             -0.0000

 -1.0313546\MP4SDQ=-1.032933\CCSD=-1.0339604\CCSD(T)=-1.0343462\S2=0.76
 Normal termination of Gaussian 16 at Fri Feb  9 17:59:49 2024.
