 Gaussian 16, Revision A.03,
 Gaussian 16:  ES64L-G16RevA.03 25-Dec-2016

 ------------------
 #p CCSD(T)/cc-pVTZ
 ------------------

 -----
 H2_22
 -----
 Symbolic Z-matrix:
 Charge = -1 Multiplicity = 2

                         Standard orientation:
 ---------------------------------------------------------------------
 Center     Atomic      Atomic             Coordinates (Angstroms)
 Number     Number       Type             X           Y           Z
 ---------------------------------------------------------------------
      1          1           0        0.000000    0.000000    0.730000
      2          1           0        0.000000    0.000000   -0.730000
 ---------------------------------------------------------------------

 SCF Done:  E(UHF) = -0.988498467531     A.U. after   10 cycles
 E2 =    -0.3418069839D-01 EUMP2 =    -0.10226791659246D+01
 CCSD(T)
 CCSD(T)= -0.10338849442D+01

 The electronic state is 2-SGU.
 Alpha  occ. eigenvalues --   -0.19690   0.00571
 Alpha virt. eigenvalues --    0.62945   0.68567   0.97612   0.97612   1.11816
 Alpha virt. eigenvalues --    1.23789   1.23789   1.65171   2.87394   3.02352
 Alpha virt. eigenvalues --    3.47004   3.49500   3.49500   3.72925   3.72925

  Beta  occ. eigenvalues --   -0.07143
  Beta virt. eigenvalues --    0.36788   0.66529   0.78882   1.00549   1.00549
  Beta virt. eigenvalues --    1.19117   1.29514   1.29514   1.70149   2.93482
  Beta virt. eigenvalues --    3.07622   3.48821   3.51943   3.51943   3.75239

 Mulliken charges and spin densities:
               1          2
     1  H   -0.500000   0.500000
     2  H   -0.500000   0.500000
 Sum of Mulliken charges =  -1.00000   1.00000

 Dipole moment (field-independent basis, Debye):
    X=             -0.0000    Y=              0.0000    Z=              0.0000  Tot=              0.0000
 Quadrupole moment (field-independent basis, Debye-Ang):
   XX=             -5.8938   YY=             -5.8938   ZZ=            -10.2812
   XY=              0.0000   XZ=              0.0000   YZ=             -0.0000

 =-1.0308526\MP4SDQ=-1.0323686\CCSD=-1.0335103\CCSD(T)=-1.0338849\S2=0.
 Normal termination of Gaussian 16 at Fri Feb  9 17:59:52 2024.
