 Gaussian 16, Revision A.03,
 Gaussian 16:  ES64L-G16RevA.03 25-Dec-2016

 ------------------
 #p CCSD(T)/cc-pVTZ
 ------------------

 -----
 H2_28
 -----
 Symbolic Z-matrix:
 Charge = -1 Multiplicity = 2

                         Standard orientation:
 ---------------------------------------------------------------------
 Center     Atomic      Atomic             Coordinates (Angstroms)
 Number     Number       Type             X           Y           Z
 ---------------------------------------------------------------------
      1          1           0        0.000000    0.000000    0.820000
      2          1           0        0.000000    0.000000   -0.820000
 ---------------------------------------------------------------------

 SCF Done:  E(UHF) = -0.987966710696     A.U. after    9 cycles
 E2 =    -0.3246761628D-01 EUMP2 =    -0.10204343269789D+01
 CCSD(T)
 CCSD(T)= -0.10320945496D+01

 The electronic state is 2-SGU.
 Alpha  occ. eigenvalues --   -0.18897  -0.02761
 Alpha virt. eigenvalues --    0.63914   0.66578   0.98191   0.98191   1.05794
 Alpha virt. eigenvalues --    1.19882   1.19882   1.58435   2.80950   2.99212
 Alpha virt. eigenvalues --    3.52543   3.58460   3.58460   3.76440   3.76440

  Beta  occ. eigenvalues --   -0.04735
  Beta virt. eigenvalues --    0.34751   0.68497   0.77005   1.01558   1.01558
  Beta virt. eigenvalues --    1.12846   1.25723   1.25723   1.63682   2.87900
  Beta virt. eigenvalues --    3.05303   3.54943   3.61346   3.61346   3.79135

 Mulliken charges and spin densities:
               1          2
     1  H   -0.500000   0.500000
     2  H   -0.500000   0.500000
 Sum of Mulliken charges =  -1.00000   1.00000

 Dipole moment (field-independent basis, Debye):
    X=             -0.0000    Y=             -0.0000    Z=             -0.0000  Tot=              0.0000
 Quadrupole moment (field-independent basis, Debye-Ang):
   XX=             -5.9574   YY=             -5.9574   ZZ=            -10.4036
   XY=              0.0000   XZ=              0.0000   YZ=             -0.0000

 0=-1.0289481\MP4SDQ=-1.0302336\CCSD=-1.0317504\CCSD(T)=-1.0320945\S2=0
 Normal termination of Gaussian 16 at Fri Feb  9 17:59:59 2024.
