 Gaussian 16, Revision A.03,
 Gaussian 16:  ES64L-G16RevA.03 25-Dec-2016

 ------------------
 #p CCSD(T)/cc-pVTZ
 ------------------

 -----
 H2_27
 -----
 Symbolic Z-matrix:
 Charge = -1 Multiplicity = 2

                         Standard orientation:
 ---------------------------------------------------------------------
 Center     Atomic      Atomic             Coordinates (Angstroms)
 Number     Number       Type             X           Y           Z
 ---------------------------------------------------------------------
      1          1           0        0.000000    0.000000    0.805000
      2          1           0        0.000000    0.000000   -0.805000
 ---------------------------------------------------------------------

 SCF Done:  E(UHF) = -0.988099771336     A.U. after   10 cycles
 E2 =    -0.3274424540D-01 EUMP2 =    -0.10208440167382D+01
 CCSD(T)
 CCSD(T)= -0.10324314876D+01

 The electronic state is 2-SGU.
 Alpha  occ. eigenvalues --   -0.19004  -0.02239
 Alpha virt. eigenvalues --    0.63778   0.66855   0.98075   0.98075   1.06766
 Alpha virt. eigenvalues --    1.20512   1.20512   1.59591   2.81930   2.99751
 Alpha virt. eigenvalues --    3.51320   3.56875   3.56875   3.76037   3.76037

  Beta  occ. eigenvalues --   -0.05080
  Beta virt. eigenvalues --    0.35083   0.68190   0.77283   1.01370   1.01370
  Beta virt. eigenvalues --    1.13875   1.26339   1.26339   1.64800   2.88773
  Beta virt. eigenvalues --    3.05716   3.53609   3.59703   3.59703   3.78677

 Mulliken charges and spin densities:
               1          2
     1  H   -0.500000   0.500000
     2  H   -0.500000   0.500000
 Sum of Mulliken charges =  -1.00000   1.00000

 Dipole moment (field-independent basis, Debye):
    X=             -0.0000    Y=              0.0000    Z=              0.0000  Tot=              0.0000
 Quadrupole moment (field-independent basis, Debye-Ang):
   XX=             -5.9472   YY=             -5.9472   ZZ=            -10.3684
   XY=              0.0000   XZ=              0.0000   YZ=             -0.0000

 -1.0293034\MP4SDQ=-1.0306301\CCSD=-1.0320827\CCSD(T)=-1.0324315\S2=0.7
 Normal termination of Gaussian 16 at Fri Feb  9 17:59:58 2024.
