 Gaussian 16, Revision A.03,
 Gaussian 16:  ES64L-G16RevA.03 25-Dec-2016

 ------------------
 #p CCSD(T)/cc-pVTZ
 ------------------

 ----
 H2_2
 ----
 Symbolic Z-matrix:
 Charge = -1 Multiplicity = 2

                         Standard orientation:
 ---------------------------------------------------------------------
 Center     Atomic      Atomic             Coordinates (Angstroms)
 Number     Number       Type             X           Y           Z
 ---------------------------------------------------------------------
      1          1           0        0.000000    0.000000    0.430000
      2          1           0        0.000000    0.000000   -0.430000
 ---------------------------------------------------------------------

 SCF Done:  E(UHF) = -0.982416252808     A.U. after   10 cycles
 E2 =    -0.3750198027D-01 EUMP2 =    -0.10199182330768D+01
 CCSD(T)
 CCSD(T)= -0.10292510642D+01

 The electronic state is 2-SGU.
 Alpha  occ. eigenvalues --   -0.27130   0.13383
 Alpha virt. eigenvalues --    0.56121   0.84907   0.97651   0.97651   1.33479
 Alpha virt. eigenvalues --    1.37360   1.37360   1.79151   2.72914   2.77519
 Alpha virt. eigenvalues --    3.49356   3.49356   3.65039   3.65039   3.93248

  Beta  occ. eigenvalues --   -0.23139
  Beta virt. eigenvalues --    0.44140   0.58441   0.91739   0.99228   0.99228
  Beta virt. eigenvalues --    1.39895   1.41975   1.41975   1.82615   2.74879
  Beta virt. eigenvalues --    2.77991   3.49807   3.49807   3.65036   3.65036

 Mulliken charges and spin densities:
               1          2
     1  H   -0.500000   0.500000
     2  H   -0.500000   0.500000
 Sum of Mulliken charges =  -1.00000   1.00000

 Dipole moment (field-independent basis, Debye):
    X=             -0.0000    Y=              0.0000    Z=              0.0000  Tot=              0.0000
 Quadrupole moment (field-independent basis, Debye-Ang):
   XX=             -5.6559   YY=             -5.6559   ZZ=            -11.3835
   XY=              0.0000   XZ=              0.0000   YZ=             -0.0000

 =-1.0270776\MP4SDQ=-1.028318\CCSD=-1.0288555\CCSD(T)=-1.0292511\S2=0.7
 Normal termination of Gaussian 16 at Fri Feb  9 17:59:27 2024.
