 Gaussian 16, Revision A.03,
 Gaussian 16:  ES64L-G16RevA.03 25-Dec-2016

 ------------------
 #p CCSD(T)/cc-pVTZ
 ------------------

 -----
 H2_21
 -----
 Symbolic Z-matrix:
 Charge = -1 Multiplicity = 2

                         Standard orientation:
 ---------------------------------------------------------------------
 Center     Atomic      Atomic             Coordinates (Angstroms)
 Number     Number       Type             X           Y           Z
 ---------------------------------------------------------------------
      1          1           0        0.000000    0.000000    0.715000
      2          1           0        0.000000    0.000000   -0.715000
 ---------------------------------------------------------------------

 SCF Done:  E(UHF) = -0.988528638297     A.U. after   10 cycles
 E2 =    -0.3447020645D-01 EUMP2 =    -0.10229988447449D+01
 CCSD(T)
 CCSD(T)= -0.10341248778D+01

 The electronic state is 2-SGU.
 Alpha  occ. eigenvalues --   -0.19862   0.01171
 Alpha virt. eigenvalues --    0.62744   0.68987   0.97542   0.97542   1.12860
 Alpha virt. eigenvalues --    1.24467   1.24467   1.66232   2.88405   3.02823
 Alpha virt. eigenvalues --    3.46773   3.48313   3.48313   3.72060   3.72060

  Beta  occ. eigenvalues --   -0.07633
  Beta virt. eigenvalues --    0.37137   0.66170   0.79248   1.00407   1.00407
  Beta virt. eigenvalues --    1.20180   1.30164   1.30164   1.71154   2.94273
  Beta virt. eigenvalues --    3.07940   3.48540   3.50660   3.50660   3.74297

 Mulliken charges and spin densities:
               1          2
     1  H   -0.500000   0.500000
     2  H   -0.500000   0.500000
 Sum of Mulliken charges =  -1.00000   1.00000

 Dipole moment (field-independent basis, Debye):
    X=             -0.0000    Y=             -0.0000    Z=              0.0000  Tot=              0.0000
 Quadrupole moment (field-independent basis, Debye-Ang):
   XX=             -5.8830   YY=             -5.8830   ZZ=            -10.2825
   XY=              0.0000   XZ=              0.0000   YZ=             -0.0000

 =-1.0311126\MP4SDQ=-1.0326612\CCSD=-1.0337447\CCSD(T)=-1.0341249\S2=0.
 Normal termination of Gaussian 16 at Fri Feb  9 17:59:51 2024.
