 Gaussian 16, Revision A.03,
 Gaussian 16:  ES64L-G16RevA.03 25-Dec-2016

 ------------------
 #p CCSD(T)/cc-pVTZ
 ------------------

 -----
 H2_24
 -----
 Symbolic Z-matrix:
 Charge = -1 Multiplicity = 2

                         Standard orientation:
 ---------------------------------------------------------------------
 Center     Atomic      Atomic             Coordinates (Angstroms)
 Number     Number       Type             X           Y           Z
 ---------------------------------------------------------------------
      1          1           0        0.000000    0.000000    0.760000
      2          1           0        0.000000    0.000000   -0.760000
 ---------------------------------------------------------------------

 SCF Done:  E(UHF) = -0.988390540576     A.U. after   10 cycles
 E2 =    -0.3359978990D-01 EUMP2 =    -0.10219903304755D+01
 CCSD(T)
 CCSD(T)= -0.10333523060D+01

 The electronic state is 2-SGU.
 Alpha  occ. eigenvalues --   -0.19383  -0.00592
 Alpha virt. eigenvalues --    0.63312   0.67810   0.97774   0.97774   1.09762
 Alpha virt. eigenvalues --    1.22454   1.22454   1.62987   2.85192   3.01344
 Alpha virt. eigenvalues --    3.48225   3.52242   3.52242   3.74405   3.74405

  Beta  occ. eigenvalues --   -0.06245
  Beta virt. eigenvalues --    0.36097   0.67220   0.78198   1.00854   1.00854
  Beta virt. eigenvalues --    1.17005   1.28226   1.28226   1.68067   2.91640
  Beta virt. eigenvalues --    3.06905   3.50199   3.54858   3.54858   3.76860

 Mulliken charges and spin densities:
               1          2
     1  H   -0.500000   0.500000
     2  H   -0.500000   0.500000
 Sum of Mulliken charges =  -1.00000   1.00000

 Dipole moment (field-independent basis, Debye):
    X=             -0.0000    Y=             -0.0000    Z=             -0.0000  Tot=              0.0000
 Quadrupole moment (field-independent basis, Debye-Ang):
   XX=             -5.9155   YY=             -5.9155   ZZ=            -10.2977
   XY=              0.0000   XZ=              0.0000   YZ=             -0.0000

 0=-1.0302808\MP4SDQ=-1.0317255\CCSD=-1.0329885\CCSD(T)=-1.0333523\S2=0
 Normal termination of Gaussian 16 at Fri Feb  9 17:59:54 2024.
