 Gaussian 16, Revision A.03,
 Gaussian 16:  ES64L-G16RevA.03 25-Dec-2016

 ------------------
 #p CCSD(T)/cc-pVTZ
 ------------------

 -----
 H2_23
 -----
 Symbolic Z-matrix:
 Charge = -1 Multiplicity = 2

                         Standard orientation:
 ---------------------------------------------------------------------
 Center     Atomic      Atomic             Coordinates (Angstroms)
 Number     Number       Type             X           Y           Z
 ---------------------------------------------------------------------
      1          1           0        0.000000    0.000000    0.745000
      2          1           0        0.000000    0.000000   -0.745000
 ---------------------------------------------------------------------

 SCF Done:  E(UHF) = -0.988452690982     A.U. after   10 cycles
 E2 =    -0.3389004733D-01 EUMP2 =    -0.10223427383110D+01
 CCSD(T)
 CCSD(T)= -0.10336271805D+01

 The electronic state is 2-SGU.
 Alpha  occ. eigenvalues --   -0.19531  -0.00017
 Alpha virt. eigenvalues --    0.63135   0.68175   0.97690   0.97690   1.10783
 Alpha virt. eigenvalues --    1.23118   1.23118   1.64088   2.86311   3.01857
 Alpha virt. eigenvalues --    3.47502   3.50819   3.50819   3.73706   3.73706

  Beta  occ. eigenvalues --   -0.06681
  Beta virt. eigenvalues --    0.36441   0.66879   0.78532   1.00698   1.00698
  Beta virt. eigenvalues --    1.18059   1.28867   1.28867   1.69119   2.92591
  Beta virt. eigenvalues --    3.07274   3.49391   3.53352   3.53352   3.76092

 Mulliken charges and spin densities:
               1          2
     1  H   -0.500000   0.500000
     2  H   -0.500000   0.500000
 Sum of Mulliken charges =  -1.00000   1.00000

 Dipole moment (field-independent basis, Debye):
    X=             -0.0000    Y=              0.0000    Z=             -0.0000  Tot=              0.0000
 Quadrupole moment (field-independent basis, Debye-Ang):
   XX=             -5.9047   YY=             -5.9047   ZZ=            -10.2863
   XY=              0.0000   XZ=              0.0000   YZ=             -0.0000

 =-1.0305751\MP4SDQ=-1.0320564\CCSD=-1.033258\CCSD(T)=-1.0336272\S2=0.7
 Normal termination of Gaussian 16 at Fri Feb  9 17:59:53 2024.
