 Gaussian 16, Revision A.03,
 Gaussian 16:  ES64L-G16RevA.03 25-Dec-2016

 ------------------
 #p CCSD(T)/cc-pVTZ
 ------------------

 -----
 H2_37
 -----
 Symbolic Z-matrix:
 Charge = -1 Multiplicity = 2

                         Standard orientation:
 ---------------------------------------------------------------------
 Center     Atomic      Atomic             Coordinates (Angstroms)
 Number     Number       Type             X           Y           Z
 ---------------------------------------------------------------------
      1          1           0        0.000000    0.000000    0.955000
      2          1           0        0.000000    0.000000   -0.955000
 ---------------------------------------------------------------------

 SCF Done:  E(UHF) = -0.985965153997     A.U. after    9 cycles
 E2 =    -0.3028279956D-01 EUMP2 =    -0.10162479535540D+01
 CCSD(T)
 CCSD(T)= -0.10285111810D+01

 The electronic state is 2-SGU.
 Alpha  occ. eigenvalues --   -0.18265  -0.06871
 Alpha virt. eigenvalues --    0.64780   0.64829   0.98030   0.99545   0.99545
 Alpha virt. eigenvalues --    1.14679   1.14679   1.47797   2.76200   2.94306
 Alpha virt. eigenvalues --    3.63542   3.70397   3.70397   3.77830   3.77830

  Beta  occ. eigenvalues --   -0.02353
  Beta virt. eigenvalues --    0.31919   0.71057   0.74993   1.03531   1.03531
  Beta virt. eigenvalues --    1.04359   1.20591   1.20591   1.53283   2.83811
  Beta virt. eigenvalues --    3.01368   3.66785   3.73572   3.73572   3.80895

 Mulliken charges and spin densities:
               1          2
     1  H   -0.500000   0.500000
     2  H   -0.500000   0.500000
 Sum of Mulliken charges =  -1.00000   1.00000

 Dipole moment (field-independent basis, Debye):
    X=             -0.0000    Y=              0.0000    Z=             -0.0000  Tot=              0.0000
 Quadrupole moment (field-independent basis, Debye-Ang):
   XX=             -6.0327   YY=             -6.0327   ZZ=            -10.9517
   XY=              0.0000   XZ=              0.0000   YZ=             -0.0000

 =-1.0252119\MP4SDQ=-1.0261148\CCSD=-1.0281987\CCSD(T)=-1.0285112\S2=0.
 Normal termination of Gaussian 16 at Fri Feb  9 18:00:14 2024.
