 Gaussian 16, Revision A.03,
 Gaussian 16:  ES64L-G16RevA.03 25-Dec-2016

 ------------------
 #p CCSD(T)/cc-pVTZ
 ------------------

 -----
 H2_39
 -----
 Symbolic Z-matrix:
 Charge = -1 Multiplicity = 2

                         Standard orientation:
 ---------------------------------------------------------------------
 Center     Atomic      Atomic             Coordinates (Angstroms)
 Number     Number       Type             X           Y           Z
 ---------------------------------------------------------------------
      1          1           0        0.000000    0.000000    0.985000
      2          1           0        0.000000    0.000000   -0.985000
 ---------------------------------------------------------------------

 SCF Done:  E(UHF) = -0.985343264772     A.U. after    9 cycles
 E2 =    -0.2988122290D-01 EUMP2 =    -0.10152244876687D+01
 CCSD(T)
 CCSD(T)= -0.10276100237D+01

 The electronic state is 2-SGU.
 Alpha  occ. eigenvalues --   -0.18189  -0.07648
 Alpha virt. eigenvalues --    0.64510   0.64980   0.96684   0.99889   0.99889
 Alpha virt. eigenvalues --    1.13649   1.13649   1.45421   2.76107   2.93185
 Alpha virt. eigenvalues --    3.65514   3.72122   3.72122   3.77787   3.77787

  Beta  occ. eigenvalues --   -0.01958
  Beta virt. eigenvalues --    0.31330   0.71611   0.74651   1.02801   1.04002
  Beta virt. eigenvalues --    1.04002   1.19566   1.19566   1.50942   2.83813
  Beta virt. eigenvalues --    3.00422   3.68879   3.75321   3.75321   3.80910

 Mulliken charges and spin densities:
               1          2
     1  H   -0.500000   0.500000
     2  H   -0.500000   0.500000
 Sum of Mulliken charges =  -1.00000   1.00000

 Dipole moment (field-independent basis, Debye):
    X=             -0.0000    Y=              0.0000    Z=              0.0000  Tot=              0.0000
 Quadrupole moment (field-independent basis, Debye-Ang):
   XX=             -6.0443   YY=             -6.0443   ZZ=            -11.1226
   XY=              0.0000   XZ=              0.0000   YZ=             -0.0000

 0=-1.0242799\MP4SDQ=-1.0250989\CCSD=-1.0273024\CCSD(T)=-1.02761\S2=0.7
 Normal termination of Gaussian 16 at Fri Feb  9 18:00:17 2024.
