 Gaussian 16, Revision A.03,
 Gaussian 16:  ES64L-G16RevA.03 25-Dec-2016

 ------------------
 #p CCSD(T)/cc-pVTZ
 ------------------

 -----
 H2_35
 -----
 Symbolic Z-matrix:
 Charge = -1 Multiplicity = 2

                         Standard orientation:
 ---------------------------------------------------------------------
 Center     Atomic      Atomic             Coordinates (Angstroms)
 Number     Number       Type             X           Y           Z
 ---------------------------------------------------------------------
      1          1           0        0.000000    0.000000    0.925000
      2          1           0        0.000000    0.000000   -0.925000
 ---------------------------------------------------------------------

 SCF Done:  E(UHF) = -0.986528356072     A.U. after   10 cycles
 E2 =    -0.3071554403D-01 EUMP2 =    -0.10172439001021D+01
 CCSD(T)
 CCSD(T)= -0.10293807922D+01

 The electronic state is 2-SGU.
 Alpha  occ. eigenvalues --   -0.18361  -0.06047
 Alpha virt. eigenvalues --    0.64662   0.65090   0.99209   0.99209   0.99546
 Alpha virt. eigenvalues --    1.15758   1.15758   1.50177   2.76609   2.95410
 Alpha virt. eigenvalues --    3.61344   3.68297   3.68297   3.77782   3.77782

  Beta  occ. eigenvalues --   -0.02789
  Beta virt. eigenvalues --    0.32523   0.70503   0.75371   1.03062   1.03062
  Beta virt. eigenvalues --    1.06068   1.21662   1.21662   1.55622   2.84108
  Beta virt. eigenvalues --    3.02282   3.64438   3.71438   3.71438   3.80781

 Mulliken charges and spin densities:
               1          2
     1  H   -0.500000   0.500000
     2  H   -0.500000   0.500000
 Sum of Mulliken charges =  -1.00000   1.00000

 Dipole moment (field-independent basis, Debye):
    X=             -0.0000    Y=              0.0000    Z=              0.0000  Tot=              0.0000
 Quadrupole moment (field-independent basis, Debye-Ang):
   XX=             -6.0190   YY=             -6.0190   ZZ=            -10.7971
   XY=              0.0000   XZ=              0.0000   YZ=             -0.0000

 0=-1.0261135\MP4SDQ=-1.0271013\CCSD=-1.0290627\CCSD(T)=-1.0293808\S2=0
 Normal termination of Gaussian 16 at Fri Feb  9 18:00:11 2024.
