 Gaussian 16, Revision A.03,
 Gaussian 16:  ES64L-G16RevA.03 25-Dec-2016

 ------------------
 #p CCSD(T)/cc-pVTZ
 ------------------

 ----
 H2_3
 ----
 Symbolic Z-matrix:
 Charge = -1 Multiplicity = 2

                         Standard orientation:
 ---------------------------------------------------------------------
 Center     Atomic      Atomic             Coordinates (Angstroms)
 Number     Number       Type             X           Y           Z
 ---------------------------------------------------------------------
      1          1           0        0.000000    0.000000    0.445000
      2          1           0        0.000000    0.000000   -0.445000
 ---------------------------------------------------------------------

 SCF Done:  E(UHF) = -0.983862038137     A.U. after   10 cycles
 E2 =    -0.3751162664D-01 EUMP2 =    -0.10213736647754D+01
 CCSD(T)
 CCSD(T)= -0.10308233970D+01

 The electronic state is 2-SGU.
 Alpha  occ. eigenvalues --   -0.26475   0.12792
 Alpha virt. eigenvalues --    0.56592   0.83667   0.97527   0.97527   1.32506
 Alpha virt. eigenvalues --    1.36765   1.36765   1.78773   2.76761   2.79021
 Alpha virt. eigenvalues --    3.50001   3.50001   3.63008   3.63008   3.90736

  Beta  occ. eigenvalues --   -0.22047
  Beta virt. eigenvalues --    0.43773   0.58839   0.90752   0.99164   0.99164
  Beta virt. eigenvalues --    1.39009   1.41466   1.41466   1.82311   2.78842
  Beta virt. eigenvalues --    2.79657   3.50528   3.50528   3.63107   3.63107

 Mulliken charges and spin densities:
               1          2
     1  H   -0.500000   0.500000
     2  H   -0.500000   0.500000
 Sum of Mulliken charges =  -1.00000   1.00000

 Dipole moment (field-independent basis, Debye):
    X=             -0.0000    Y=              0.0000    Z=             -0.0000  Tot=              0.0000
 Quadrupole moment (field-independent basis, Debye-Ang):
   XX=             -5.6750   YY=             -5.6750   ZZ=            -11.2909
   XY=             -0.0000   XZ=              0.0000   YZ=              0.0000

 -1.0285921\MP4SDQ=-1.0298718\CCSD=-1.0304207\CCSD(T)=-1.0308234\S2=0.7
 Normal termination of Gaussian 16 at Fri Feb  9 17:59:28 2024.
