 Gaussian 16, Revision A.03,
 Gaussian 16:  ES64L-G16RevA.03 25-Dec-2016

 ------------------
 #p CCSD(T)/cc-pVTZ
 ------------------

 -----
 H2_33
 -----
 Symbolic Z-matrix:
 Charge = -1 Multiplicity = 2

                         Standard orientation:
 ---------------------------------------------------------------------
 Center     Atomic      Atomic             Coordinates (Angstroms)
 Number     Number       Type             X           Y           Z
 ---------------------------------------------------------------------
      1          1           0        0.000000    0.000000    0.895000
      2          1           0        0.000000    0.000000   -0.895000
 ---------------------------------------------------------------------

 SCF Done:  E(UHF) = -0.987027231106     A.U. after   10 cycles
 E2 =    -0.3117950734D-01 EUMP2 =    -0.10182067384499D+01
 CCSD(T)
 CCSD(T)= -0.10302130447D+01

 The electronic state is 2-SGU.
 Alpha  occ. eigenvalues --   -0.18480  -0.05173
 Alpha virt. eigenvalues --    0.64477   0.65445   0.98888   0.98888   1.01204
 Alpha virt. eigenvalues --    1.16882   1.16882   1.52554   2.77373   2.96502
 Alpha virt. eigenvalues --    3.58944   3.65836   3.65836   3.77614   3.77614

  Beta  occ. eigenvalues --   -0.03272
  Beta virt. eigenvalues --    0.33142   0.69946   0.75785   1.02605   1.02605
  Beta virt. eigenvalues --    1.07901   1.22774   1.22774   1.57952   2.84743
  Beta virt. eigenvalues --    3.03169   3.61865   3.68928   3.68928   3.80539

 Mulliken charges and spin densities:
               1          2
     1  H   -0.500000   0.500000
     2  H   -0.500000   0.500000
 Sum of Mulliken charges =  -1.00000   1.00000

 Dipole moment (field-independent basis, Debye):
    X=             -0.0000    Y=             -0.0000    Z=              0.0000  Tot=              0.0000
 Quadrupole moment (field-independent basis, Debye-Ang):
   XX=             -6.0035   YY=             -6.0035   ZZ=            -10.6602
   XY=              0.0000   XZ=              0.0000   YZ=             -0.0000

 0=-1.0269789\MP4SDQ=-1.0280522\CCSD=-1.0298886\CCSD(T)=-1.030213\S2=0.
 Normal termination of Gaussian 16 at Fri Feb  9 18:00:06 2024.
