 Gaussian 16, Revision A.03,
 Gaussian 16:  ES64L-G16RevA.03 25-Dec-2016

 ------------------
 #p CCSD(T)/cc-pVTZ
 ------------------

 -----
 H2_38
 -----
 Symbolic Z-matrix:
 Charge = -1 Multiplicity = 2

                         Standard orientation:
 ---------------------------------------------------------------------
 Center     Atomic      Atomic             Coordinates (Angstroms)
 Number     Number       Type             X           Y           Z
 ---------------------------------------------------------------------
      1          1           0        0.000000    0.000000    0.970000
      2          1           0        0.000000    0.000000   -0.970000
 ---------------------------------------------------------------------

 SCF Done:  E(UHF) = -0.985661156247     A.U. after    9 cycles
 E2 =    -0.3007814552D-01 EUMP2 =    -0.10157393017666D+01
 CCSD(T)
 CCSD(T)= -0.10280641807D+01

 The electronic state is 2-SGU.
 Alpha  occ. eigenvalues --   -0.18224  -0.07265
 Alpha virt. eigenvalues --    0.64640   0.64907   0.97334   0.99716   0.99716
 Alpha virt. eigenvalues --    1.14158   1.14158   1.46609   2.76116   2.93748
 Alpha virt. eigenvalues --    3.64557   3.71306   3.71306   3.77819   3.77819

  Beta  occ. eigenvalues --   -0.02151
  Beta virt. eigenvalues --    0.31623   0.71334   0.74818   1.03559   1.03766
  Beta virt. eigenvalues --    1.03766   1.20073   1.20073   1.52113   2.83777
  Beta virt. eigenvalues --    3.00899   3.67864   3.74494   3.74494   3.80913

 Mulliken charges and spin densities:
               1          2
     1  H   -0.500000   0.500000
     2  H   -0.500000   0.500000
 Sum of Mulliken charges =  -1.00000   1.00000

 Dipole moment (field-independent basis, Debye):
    X=             -0.0000    Y=             -0.0000    Z=              0.0000  Tot=              0.0000
 Quadrupole moment (field-independent basis, Debye-Ang):
   XX=             -6.0387   YY=             -6.0387   ZZ=            -11.0352
   XY=              0.0000   XZ=              0.0000   YZ=             -0.0000

 =-1.0247494\MP4SDQ=-1.0256102\CCSD=-1.0277542\CCSD(T)=-1.0280642\S2=0.
 Normal termination of Gaussian 16 at Fri Feb  9 18:00:16 2024.
