 Gaussian 16, Revision A.03,
 Gaussian 16:  ES64L-G16RevA.03 25-Dec-2016

 ------------------
 #p CCSD(T)/cc-pVTZ
 ------------------

 -----
 H2_36
 -----
 Symbolic Z-matrix:
 Charge = -1 Multiplicity = 2

                         Standard orientation:
 ---------------------------------------------------------------------
 Center     Atomic      Atomic             Coordinates (Angstroms)
 Number     Number       Type             X           Y           Z
 ---------------------------------------------------------------------
      1          1           0        0.000000    0.000000    0.940000
      2          1           0        0.000000    0.000000   -0.940000
 ---------------------------------------------------------------------

 SCF Done:  E(UHF) = -0.986254466419     A.U. after   10 cycles
 E2 =    -0.3049525554D-01 EUMP2 =    -0.10167497219555D+01
 CCSD(T)
 CCSD(T)= -0.10289502846D+01

 The electronic state is 2-SGU.
 Alpha  occ. eigenvalues --   -0.18310  -0.06465
 Alpha virt. eigenvalues --    0.64748   0.64929   0.98768   0.99376   0.99376
 Alpha virt. eigenvalues --    1.15213   1.15213   1.48987   2.76362   2.94860
 Alpha virt. eigenvalues --    3.62470   3.69393   3.69393   3.77819   3.77819

  Beta  occ. eigenvalues --   -0.02565
  Beta virt. eigenvalues --    0.32219   0.70780   0.75177   1.03295   1.03295
  Beta virt. eigenvalues --    1.05196   1.21121   1.21121   1.54453   2.83919
  Beta virt. eigenvalues --    3.01829   3.65642   3.72553   3.72553   3.80852

 Mulliken charges and spin densities:
               1          2
     1  H   -0.500000   0.500000
     2  H   -0.500000   0.500000
 Sum of Mulliken charges =  -1.00000   1.00000

 Dipole moment (field-independent basis, Debye):
    X=             -0.0000    Y=             -0.0000    Z=              0.0000  Tot=              0.0000
 Quadrupole moment (field-independent basis, Debye-Ang):
   XX=             -6.0261   YY=             -6.0261   ZZ=            -10.8723
   XY=              0.0000   XZ=              0.0000   YZ=             -0.0000

 -1.0256669\MP4SDQ=-1.0266121\CCSD=-1.0286351\CCSD(T)=-1.0289503\S2=0.7
 Normal termination of Gaussian 16 at Fri Feb  9 18:00:13 2024.
