 Gaussian 16, Revision A.03,
 Gaussian 16:  ES64L-G16RevA.03 25-Dec-2016

 ------------------
 #p CCSD(T)/cc-pVTZ
 ------------------

 -----
 H2_30
 -----
 Symbolic Z-matrix:
 Charge = -1 Multiplicity = 2

                         Standard orientation:
 ---------------------------------------------------------------------
 Center     Atomic      Atomic             Coordinates (Angstroms)
 Number     Number       Type             X           Y           Z
 ---------------------------------------------------------------------
      1          1           0        0.000000    0.000000    0.850000
      2          1           0        0.000000    0.000000   -0.850000
 ---------------------------------------------------------------------

 SCF Done:  E(UHF) = -0.987645382758     A.U. after    9 cycles
 E2 =    -0.3193187566D-01 EUMP2 =    -0.10195772584219D+01
 CCSD(T)
 CCSD(T)= -0.10313793925D+01

 The electronic state is 2-SGU.
 Alpha  occ. eigenvalues --   -0.18708  -0.03765
 Alpha virt. eigenvalues --    0.64160   0.66078   0.98448   0.98448   1.03896
 Alpha virt. eigenvalues --    1.18651   1.18651   1.56099   2.79238   2.98129
 Alpha virt. eigenvalues --    3.55105   3.61566   3.61566   3.77063   3.77063

  Beta  occ. eigenvalues --   -0.04100
  Beta virt. eigenvalues --    0.34097   0.69091   0.76484   1.01956   1.01956
  Beta virt. eigenvalues --    1.10821   1.24517   1.24517   1.61413   2.86375
  Beta virt. eigenvalues --    3.04462   3.57725   3.64551   3.64551   3.79859

 Mulliken charges and spin densities:
               1          2
     1  H   -0.500000   0.500000
     2  H   -0.500000   0.500000
 Sum of Mulliken charges =  -1.00000   1.00000

 Dipole moment (field-independent basis, Debye):
    X=             -0.0000    Y=              0.0000    Z=              0.0000  Tot=              0.0000
 Quadrupole moment (field-independent basis, Debye-Ang):
   XX=             -5.9769   YY=             -5.9769   ZZ=            -10.4907
   XY=              0.0000   XZ=              0.0000   YZ=             -0.0000

 =-1.028197\MP4SDQ=-1.0293985\CCSD=-1.0310438\CCSD(T)=-1.0313794\S2=0.7
 Normal termination of Gaussian 16 at Fri Feb  9 18:00:02 2024.
