 Gaussian 16, Revision A.03,
 Gaussian 16:  ES64L-G16RevA.03 25-Dec-2016

 ------------------
 #p CCSD(T)/cc-pVTZ
 ------------------

 -----
 H2_47
 -----
 Symbolic Z-matrix:
 Charge = -1 Multiplicity = 2

                         Standard orientation:
 ---------------------------------------------------------------------
 Center     Atomic      Atomic             Coordinates (Angstroms)
 Number     Number       Type             X           Y           Z
 ---------------------------------------------------------------------
      1          1           0        0.000000    0.000000    1.105000
      2          1           0        0.000000    0.000000   -1.105000
 ---------------------------------------------------------------------

 SCF Done:  E(UHF) = -0.982407465156     A.U. after    9 cycles
 E2 =    -0.2856785222D-01 EUMP2 =    -0.10109753173756D+01
 CCSD(T)
 CCSD(T)= -0.10238129244D+01

 The electronic state is 2-SGU.
 Alpha  occ. eigenvalues --   -0.18048  -0.10331
 Alpha virt. eigenvalues --    0.63738   0.65273   0.93489   1.01184   1.01184
 Alpha virt. eigenvalues --    1.10034   1.10034   1.36048   2.77889   2.88625
 Alpha virt. eigenvalues --    3.71235   3.75744   3.75744   3.77121   3.77121

  Beta  occ. eigenvalues --   -0.00687
  Beta virt. eigenvalues --    0.29131   0.73587   0.73657   0.98631   1.05752
  Beta virt. eigenvalues --    1.05752   1.15953   1.15953   1.41666   2.85846
  Beta virt. eigenvalues --    2.96400   3.74835   3.79000   3.79000   3.80419

 Mulliken charges and spin densities:
               1          2
     1  H   -0.500000   0.500000
     2  H   -0.500000   0.500000
 Sum of Mulliken charges =  -1.00000   1.00000

 Dipole moment (field-independent basis, Debye):
    X=             -0.0000    Y=              0.0000    Z=              0.0000  Tot=              0.0000
 Quadrupole moment (field-independent basis, Debye-Ang):
   XX=             -6.0719   YY=             -6.0719   ZZ=            -11.9490
   XY=              0.0000   XZ=              0.0000   YZ=             -0.0000

 0=-1.0203687\MP4SDQ=-1.0208694\CCSD=-1.0235187\CCSD(T)=-1.0238129\S2=0
 Normal termination of Gaussian 16 at Fri Feb  9 18:00:35 2024.
