 Gaussian 16, Revision A.03,
 Gaussian 16:  ES64L-G16RevA.03 25-Dec-2016

 ------------------
 #p CCSD(T)/cc-pVTZ
 ------------------

 ----
 H2_4
 ----
 Symbolic Z-matrix:
 Charge = -1 Multiplicity = 2

                         Standard orientation:
 ---------------------------------------------------------------------
 Center     Atomic      Atomic             Coordinates (Angstroms)
 Number     Number       Type             X           Y           Z
 ---------------------------------------------------------------------
      1          1           0        0.000000    0.000000    0.460000
      2          1           0        0.000000    0.000000   -0.460000
 ---------------------------------------------------------------------

 SCF Done:  E(UHF) = -0.984976805371     A.U. after    9 cycles
 E2 =    -0.3750382612D-01 EUMP2 =    -0.10224806314883D+01
 CCSD(T)
 CCSD(T)= -0.10320444764D+01

 The electronic state is 2-SGU.
 Alpha  occ. eigenvalues --   -0.25859   0.12185
 Alpha virt. eigenvalues --    0.57054   0.82454   0.97422   0.97422   1.31497
 Alpha virt. eigenvalues --    1.36146   1.36146   1.78423   2.80478   2.80868
 Alpha virt. eigenvalues --    3.50805   3.50805   3.60935   3.60935   3.87917

  Beta  occ. eigenvalues --   -0.20980
  Beta virt. eigenvalues --    0.43400   0.59243   0.89791   0.99121   0.99121
  Beta virt. eigenvalues --    1.38085   1.40930   1.40930   1.82033   2.81295
  Beta virt. eigenvalues --    2.83077   3.51415   3.51415   3.61144   3.61144

 Mulliken charges and spin densities:
               1          2
     1  H   -0.500000   0.500000
     2  H   -0.500000   0.500000
 Sum of Mulliken charges =  -1.00000   1.00000

 Dipole moment (field-independent basis, Debye):
    X=             -0.0000    Y=             -0.0000    Z=              0.0000  Tot=              0.0000
 Quadrupole moment (field-independent basis, Debye-Ang):
   XX=             -5.6924   YY=             -5.6924   ZZ=            -11.2004
   XY=             -0.0000   XZ=              0.0000   YZ=              0.0000

 -1.0297541\MP4SDQ=-1.0310755\CCSD=-1.0316356\CCSD(T)=-1.0320445\S2=0.7
 Normal termination of Gaussian 16 at Fri Feb  9 17:59:29 2024.
