 Gaussian 16, Revision A.03,
 Gaussian 16:  ES64L-G16RevA.03 25-Dec-2016

 ------------------
 #p CCSD(T)/cc-pVTZ
 ------------------

 -----
 H2_41
 -----
 Symbolic Z-matrix:
 Charge = -1 Multiplicity = 2

                         Standard orientation:
 ---------------------------------------------------------------------
 Center     Atomic      Atomic             Coordinates (Angstroms)
 Number     Number       Type             X           Y           Z
 ---------------------------------------------------------------------
      1          1           0        0.000000    0.000000    1.015000
      2          1           0        0.000000    0.000000   -1.015000
 ---------------------------------------------------------------------

 SCF Done:  E(UHF) = -0.984669197566     A.U. after    9 cycles
 E2 =    -0.2951013904D-01 EUMP2 =    -0.10141793366072D+01
 CCSD(T)
 CCSD(T)= -0.10266832844D+01

 The electronic state is 2-SGU.
 Alpha  occ. eigenvalues --   -0.18130  -0.08380
 Alpha virt. eigenvalues --    0.64274   0.65109   0.95536   1.00231   1.00231
 Alpha virt. eigenvalues --    1.12668   1.12668   1.43053   2.76282   2.92048
 Alpha virt. eigenvalues --    3.67255   3.73484   3.73484   3.77678   3.77678

  Beta  occ. eigenvalues --   -0.01598
  Beta virt. eigenvalues --    0.30758   0.72162   0.74341   1.01423   1.04467
  Beta virt. eigenvalues --    1.04467   1.18588   1.18588   1.48604   2.84069
  Beta virt. eigenvalues --    2.99443   3.70716   3.76700   3.76700   3.80853

 Mulliken charges and spin densities:
               1          2
     1  H   -0.500000   0.500000
     2  H   -0.500000   0.500000
 Sum of Mulliken charges =  -1.00000   1.00000

 Dipole moment (field-independent basis, Debye):
    X=             -0.0000    Y=              0.0000    Z=              0.0000  Tot=              0.0000
 Quadrupole moment (field-independent basis, Debye-Ang):
   XX=             -6.0539   YY=             -6.0539   ZZ=            -11.3086
   XY=              0.0000   XZ=              0.0000   YZ=             -0.0000

 =-1.0233233\MP4SDQ=-1.0240599\CCSD=-1.0263799\CCSD(T)=-1.0266833\S2=0.
 Normal termination of Gaussian 16 at Fri Feb  9 18:00:20 2024.
