 Gaussian 16, Revision A.03,
 Gaussian 16:  ES64L-G16RevA.03 25-Dec-2016

 ------------------
 #p CCSD(T)/cc-pVTZ
 ------------------

 -----
 H2_49
 -----
 Symbolic Z-matrix:
 Charge = -1 Multiplicity = 2

                         Standard orientation:
 ---------------------------------------------------------------------
 Center     Atomic      Atomic             Coordinates (Angstroms)
 Number     Number       Type             X           Y           Z
 ---------------------------------------------------------------------
      1          1           0        0.000000    0.000000    1.135000
      2          1           0        0.000000    0.000000   -1.135000
 ---------------------------------------------------------------------

 SCF Done:  E(UHF) = -0.981599397459     A.U. after    9 cycles
 E2 =    -0.2830601393D-01 EUMP2 =    -0.10099054113922D+01
 CCSD(T)
 CCSD(T)= -0.10228476965D+01

 The electronic state is 2-SGU.
 Alpha  occ. eigenvalues --   -0.18047  -0.10909
 Alpha virt. eigenvalues --    0.63606   0.65215   0.93301   1.01456   1.01456
 Alpha virt. eigenvalues --    1.09260   1.09260   1.33767   2.78604   2.87532
 Alpha virt. eigenvalues --    3.72211   3.76040   3.76040   3.76896   3.76896

  Beta  occ. eigenvalues --   -0.00430
  Beta virt. eigenvalues --    0.28618   0.73388   0.74029   0.98211   1.06122
  Beta virt. eigenvalues --    1.06122   1.15176   1.15176   1.39402   2.86602
  Beta virt. eigenvalues --    2.95404   3.75815   3.79312   3.79312   3.80228

 Mulliken charges and spin densities:
               1          2
     1  H   -0.500000   0.500000
     2  H   -0.500000   0.500000
 Sum of Mulliken charges =  -1.00000   1.00000

 Dipole moment (field-independent basis, Debye):
    X=             -0.0000    Y=              0.0000    Z=              0.0000  Tot=              0.0000
 Quadrupole moment (field-independent basis, Debye-Ang):
   XX=             -6.0750   YY=             -6.0750   ZZ=            -12.1880
   XY=              0.0000   XZ=              0.0000   YZ=             -0.0000

 =-1.0193767\MP4SDQ=-1.0198034\CCSD=-1.0225555\CCSD(T)=-1.0228477\S2=0.
 Normal termination of Gaussian 16 at Fri Feb  9 18:00:38 2024.
