 Gaussian 16, Revision A.03,
 Gaussian 16:  ES64L-G16RevA.03 25-Dec-2016

 ------------------
 #p CCSD(T)/cc-pVTZ
 ------------------

 -----
 H2_44
 -----
 Symbolic Z-matrix:
 Charge = -1 Multiplicity = 2

                         Standard orientation:
 ---------------------------------------------------------------------
 Center     Atomic      Atomic             Coordinates (Angstroms)
 Number     Number       Type             X           Y           Z
 ---------------------------------------------------------------------
      1          1           0        0.000000    0.000000    1.060000
      2          1           0        0.000000    0.000000   -1.060000
 ---------------------------------------------------------------------

 SCF Done:  E(UHF) = -0.983576053805     A.U. after    9 cycles
 E2 =    -0.2900823314D-01 EUMP2 =    -0.10125842869462D+01
 CCSD(T)
 CCSD(T)= -0.10252589265D+01

 The electronic state is 2-SGU.
 Alpha  occ. eigenvalues --   -0.18073  -0.09399
 Alpha virt. eigenvalues --    0.63978   0.65244   0.94237   1.00728   1.00728
 Alpha virt. eigenvalues --    1.11293   1.11293   1.39526   2.76934   2.90326
 Alpha virt. eigenvalues --    3.69459   3.74915   3.74915   3.77430   3.77430

  Beta  occ. eigenvalues --   -0.01114
  Beta virt. eigenvalues --    0.29927   0.72958   0.73933   0.99754   1.05137
  Beta virt. eigenvalues --    1.05137   1.17213   1.17213   1.45115   2.84818
  Beta virt. eigenvalues --    2.97929   3.73016   3.78152   3.78152   3.80671

 Mulliken charges and spin densities:
               1          2
     1  H   -0.500000   0.500000
     2  H   -0.500000   0.500000
 Sum of Mulliken charges =  -1.00000   1.00000

 Dipole moment (field-independent basis, Debye):
    X=             -0.0000    Y=              0.0000    Z=             -0.0000  Tot=              0.0000
 Quadrupole moment (field-independent basis, Debye-Ang):
   XX=             -6.0648   YY=             -6.0648   ZZ=            -11.6141
   XY=              0.0000   XZ=              0.0000   YZ=             -0.0000

 =-1.021856\MP4SDQ=-1.0224722\CCSD=-1.0249607\CCSD(T)=-1.0252589\S2=0.7
 Normal termination of Gaussian 16 at Fri Feb  9 18:00:31 2024.
