 Gaussian 16, Revision A.03,
 Gaussian 16:  ES64L-G16RevA.03 25-Dec-2016

 ------------------
 #p CCSD(T)/cc-pVTZ
 ------------------

 -----
 H2_46
 -----
 Symbolic Z-matrix:
 Charge = -1 Multiplicity = 2

                         Standard orientation:
 ---------------------------------------------------------------------
 Center     Atomic      Atomic             Coordinates (Angstroms)
 Number     Number       Type             X           Y           Z
 ---------------------------------------------------------------------
      1          1           0        0.000000    0.000000    1.090000
      2          1           0        0.000000    0.000000   -1.090000
 ---------------------------------------------------------------------

 SCF Done:  E(UHF) = -0.982803754372     A.U. after    9 cycles
 E2 =    -0.2870811386D-01 EUMP2 =    -0.10115118682360D+01
 CCSD(T)
 CCSD(T)= -0.10242959691D+01

 The electronic state is 2-SGU.
 Alpha  occ. eigenvalues --   -0.18053  -0.10029
 Alpha virt. eigenvalues --    0.63813   0.65277   0.93675   1.01037   1.01037
 Alpha virt. eigenvalues --    1.10441   1.10441   1.37200   2.77548   2.89186
 Alpha virt. eigenvalues --    3.70686   3.75525   3.75525   3.77228   3.77228

  Beta  occ. eigenvalues --   -0.00824
  Beta virt. eigenvalues --    0.29393   0.73440   0.73696   0.98941   1.05554
  Beta virt. eigenvalues --    1.05554   1.16360   1.16360   1.42809   2.85483
  Beta virt. eigenvalues --    2.96907   3.74277   3.78774   3.78774   3.80509

 Mulliken charges and spin densities:
               1          2
     1  H   -0.500000   0.500000
     2  H   -0.500000   0.500000
 Sum of Mulliken charges =  -1.00000   1.00000

 Dipole moment (field-independent basis, Debye):
    X=             -0.0000    Y=              0.0000    Z=              0.0000  Tot=              0.0000
 Quadrupole moment (field-independent basis, Debye-Ang):
   XX=             -6.0699   YY=             -6.0699   ZZ=            -11.8342
   XY=              0.0000   XZ=              0.0000   YZ=             -0.0000

 0=-1.0208653\MP4SDQ=-1.021404\CCSD=-1.0240005\CCSD(T)=-1.024296\S2=0.7
 Normal termination of Gaussian 16 at Fri Feb  9 18:00:34 2024.
