 Gaussian 16, Revision A.03,
 Gaussian 16:  ES64L-G16RevA.03 25-Dec-2016

 ------------------
 #p CCSD(T)/cc-pVTZ
 ------------------

 -----
 H2_42
 -----
 Symbolic Z-matrix:
 Charge = -1 Multiplicity = 2

                         Standard orientation:
 ---------------------------------------------------------------------
 Center     Atomic      Atomic             Coordinates (Angstroms)
 Number     Number       Type             X           Y           Z
 ---------------------------------------------------------------------
      1          1           0        0.000000    0.000000    1.030000
      2          1           0        0.000000    0.000000   -1.030000
 ---------------------------------------------------------------------

 SCF Done:  E(UHF) = -0.984314815654     A.U. after    9 cycles
 E2 =    -0.2933570285D-01 EUMP2 =    -0.10136505185081D+01
 CCSD(T)
 CCSD(T)= -0.10262122637D+01

 The electronic state is 2-SGU.
 Alpha  occ. eigenvalues --   -0.18107  -0.08730
 Alpha virt. eigenvalues --    0.64168   0.65163   0.95044   1.00400   1.00400
 Alpha virt. eigenvalues --    1.12197   1.12197   1.41873   2.76454   2.91475
 Alpha virt. eigenvalues --    3.68042   3.74038   3.74038   3.77605   3.77605

  Beta  occ. eigenvalues --   -0.01429
  Beta virt. eigenvalues --    0.30477   0.72433   0.74198   1.00811   1.04695
  Beta virt. eigenvalues --    1.04695   1.18117   1.18117   1.47438   2.84276
  Beta virt. eigenvalues --    2.98943   3.71541   3.77261   3.77261   3.80803

 Mulliken charges and spin densities:
               1          2
     1  H   -0.500000   0.500000
     2  H   -0.500000   0.500000
 Sum of Mulliken charges =  -1.00000   1.00000

 Dipole moment (field-independent basis, Debye):
    X=             -0.0000    Y=              0.0000    Z=             -0.0000  Tot=              0.0000
 Quadrupole moment (field-independent basis, Debye-Ang):
   XX=             -6.0580   YY=             -6.0580   ZZ=            -11.4070
   XY=              0.0000   XZ=              0.0000   YZ=             -0.0000

 0=-1.0228378\MP4SDQ=-1.0235338\CCSD=-1.0259107\CCSD(T)=-1.0262123\S2=0
 Normal termination of Gaussian 16 at Fri Feb  9 18:00:23 2024.
