 Gaussian 16, Revision A.03,
 Gaussian 16:  ES64L-G16RevA.03 25-Dec-2016

 ------------------
 #p CCSD(T)/cc-pVTZ
 ------------------

 -----
 H2_43
 -----
 Symbolic Z-matrix:
 Charge = -1 Multiplicity = 2

                         Standard orientation:
 ---------------------------------------------------------------------
 Center     Atomic      Atomic             Coordinates (Angstroms)
 Number     Number       Type             X           Y           Z
 ---------------------------------------------------------------------
      1          1           0        0.000000    0.000000    1.045000
      2          1           0        0.000000    0.000000   -1.045000
 ---------------------------------------------------------------------

 SCF Done:  E(UHF) = -0.983950114042     A.U. after    9 cycles
 E2 =    -0.2916845867D-01 EUMP2 =    -0.10131185727142D+01
 CCSD(T)
 CCSD(T)= -0.10257372069D+01

 The electronic state is 2-SGU.
 Alpha  occ. eigenvalues --   -0.18088  -0.09069
 Alpha virt. eigenvalues --    0.64070   0.65208   0.94610   1.00566   1.00566
 Alpha virt. eigenvalues --    1.11739   1.11739   1.40697   2.76674   2.90900
 Alpha virt. eigenvalues --    3.68776   3.74513   3.74513   3.77521   3.77521

  Beta  occ. eigenvalues --   -0.01268
  Beta virt. eigenvalues --    0.30200   0.72699   0.74062   1.00254   1.04919
  Beta virt. eigenvalues --    1.04919   1.17659   1.17659   1.46274   2.84528
  Beta virt. eigenvalues --    2.98438   3.72307   3.77743   3.77743   3.80742

 Mulliken charges and spin densities:
               1          2
     1  H   -0.500000   0.500000
     2  H   -0.500000   0.500000
 Sum of Mulliken charges =  -1.00000   1.00000

 Dipole moment (field-independent basis, Debye):
    X=             -0.0000    Y=             -0.0000    Z=             -0.0000  Tot=              0.0000
 Quadrupole moment (field-independent basis, Debye-Ang):
   XX=             -6.0616   YY=             -6.0616   ZZ=            -11.5089
   XY=              0.0000   XZ=              0.0000   YZ=             -0.0000

 0=-1.0223484\MP4SDQ=-1.0230043\CCSD=-1.0254374\CCSD(T)=-1.0257372\S2=0
 Normal termination of Gaussian 16 at Fri Feb  9 18:00:30 2024.
