 Gaussian 16, Revision A.03,
 Gaussian 16:  ES64L-G16RevA.03 25-Dec-2016

 ------------------
 #p CCSD(T)/cc-pVTZ
 ------------------

 -----
 H2_40
 -----
 Symbolic Z-matrix:
 Charge = -1 Multiplicity = 2

                         Standard orientation:
 ---------------------------------------------------------------------
 Center     Atomic      Atomic             Coordinates (Angstroms)
 Number     Number       Type             X           Y           Z
 ---------------------------------------------------------------------
      1          1           0        0.000000    0.000000    1.000000
      2          1           0        0.000000    0.000000   -1.000000
 ---------------------------------------------------------------------

 SCF Done:  E(UHF) = -0.985012318598     A.U. after    9 cycles
 E2 =    -0.2969192988D-01 EUMP2 =    -0.10147042484790D+01
 CCSD(T)
 CCSD(T)= -0.10271494673D+01

 The electronic state is 2-SGU.
 Alpha  occ. eigenvalues --   -0.18157  -0.08019
 Alpha virt. eigenvalues --    0.64388   0.65047   0.96083   1.00060   1.00060
 Alpha virt. eigenvalues --    1.13153   1.13153   1.44236   2.76164   2.92619
 Alpha virt. eigenvalues --    3.66413   3.72847   3.72847   3.77740   3.77740

  Beta  occ. eigenvalues --   -0.01774
  Beta virt. eigenvalues --    0.31042   0.71887   0.74492   1.02088   1.04236
  Beta virt. eigenvalues --    1.04236   1.19071   1.19071   1.49772   2.83912
  Beta virt. eigenvalues --    2.99937   3.69829   3.76055   3.76055   3.80889

 Mulliken charges and spin densities:
               1          2
     1  H   -0.500000   0.500000
     2  H   -0.500000   0.500000
 Sum of Mulliken charges =  -1.00000   1.00000

 Dipole moment (field-independent basis, Debye):
    X=             -0.0000    Y=             -0.0000    Z=              0.0000  Tot=              0.0000
 Quadrupole moment (field-independent basis, Debye-Ang):
   XX=             -6.0494   YY=             -6.0494   ZZ=            -11.2138
   XY=              0.0000   XZ=              0.0000   YZ=             -0.0000

 -1.0238043\MP4SDQ=-1.0245819\CCSD=-1.026844\CCSD(T)=-1.0271495\S2=0.78
 Normal termination of Gaussian 16 at Fri Feb  9 18:00:18 2024.
