 Gaussian 16, Revision A.03,
 Gaussian 16:  ES64L-G16RevA.03 25-Dec-2016

 ------------------
 #p CCSD(T)/cc-pVTZ
 ------------------

 -----
 H2_45
 -----
 Symbolic Z-matrix:
 Charge = -1 Multiplicity = 2

                         Standard orientation:
 ---------------------------------------------------------------------
 Center     Atomic      Atomic             Coordinates (Angstroms)
 Number     Number       Type             X           Y           Z
 ---------------------------------------------------------------------
      1          1           0        0.000000    0.000000    1.075000
      2          1           0        0.000000    0.000000   -1.075000
 ---------------------------------------------------------------------

 SCF Done:  E(UHF) = -0.983193608173     A.U. after    9 cycles
 E2 =    -0.2885484608D-01 EUMP2 =    -0.10120484542570D+01
 CCSD(T)
 CCSD(T)= -0.10247782408D+01

 The electronic state is 2-SGU.
 Alpha  occ. eigenvalues --   -0.18061  -0.09719
 Alpha virt. eigenvalues --    0.63892   0.65267   0.93925   1.00885   1.00885
 Alpha virt. eigenvalues --    1.10860   1.10860   1.38360   2.77228   2.89754
 Alpha virt. eigenvalues --    3.70095   3.75251   3.75251   3.77332   3.77332

  Beta  occ. eigenvalues --   -0.00966
  Beta virt. eigenvalues --    0.29658   0.73206   0.73811   0.99316   1.05349
  Beta virt. eigenvalues --    1.05349   1.16780   1.16780   1.43959   2.85138
  Beta virt. eigenvalues --    2.97418   3.73672   3.78494   3.78494   3.80593

 Mulliken charges and spin densities:
               1          2
     1  H   -0.500000   0.500000
     2  H   -0.500000   0.500000
 Sum of Mulliken charges =  -1.00000   1.00000

 Dipole moment (field-independent basis, Debye):
    X=             -0.0000    Y=              0.0000    Z=              0.0000  Tot=              0.0000
 Quadrupole moment (field-independent basis, Debye-Ang):
   XX=             -6.0676   YY=             -6.0676   ZZ=            -11.7225
   XY=              0.0000   XZ=              0.0000   YZ=             -0.0000

 0=-1.0213614\MP4SDQ=-1.0219385\CCSD=-1.0244815\CCSD(T)=-1.0247782\S2=0
 Normal termination of Gaussian 16 at Fri Feb  9 18:00:33 2024.
