 Gaussian 16, Revision A.03,
 Gaussian 16:  ES64L-G16RevA.03 25-Dec-2016

 ------------------
 #p CCSD(T)/cc-pVTZ
 ------------------

 -----
 H2_58
 -----
 Symbolic Z-matrix:
 Charge = -1 Multiplicity = 2

                         Standard orientation:
 ---------------------------------------------------------------------
 Center     Atomic      Atomic             Coordinates (Angstroms)
 Number     Number       Type             X           Y           Z
 ---------------------------------------------------------------------
      1          1           0        0.000000    0.000000    1.270000
      2          1           0        0.000000    0.000000   -1.270000
 ---------------------------------------------------------------------

 SCF Done:  E(UHF) = -0.977873238387     A.U. after    9 cycles
 E2 =    -0.2740341990D-01 EUMP2 =    -0.10052766582838D+01
 CCSD(T)
 CCSD(T)= -0.10186529984D+01

 The electronic state is 2-SGU.
 Alpha  occ. eigenvalues --   -0.18181  -0.13152
 Alpha virt. eigenvalues --    0.63219   0.64102   0.94906   1.02286   1.02286
 Alpha virt. eigenvalues --    1.06386   1.06386   1.24121   2.81318   2.83478
 Alpha virt. eigenvalues --    3.74841   3.75845   3.75845   3.75859   3.75859

  Beta  occ. eigenvalues --    0.00518
  Beta virt. eigenvalues --    0.26467   0.72762   0.74303   0.99288   1.07313
  Beta virt. eigenvalues --    1.07313   1.12290   1.12290   1.29820   2.89461
  Beta virt. eigenvalues --    2.91656   3.78340   3.79289   3.79289   3.79318

 Mulliken charges and spin densities:
               1          2
     1  H   -0.500000   0.500000
     2  H   -0.500000   0.500000
 Sum of Mulliken charges =  -1.00000   1.00000

 Dipole moment (field-independent basis, Debye):
    X=             -0.0000    Y=             -0.0000    Z=              0.0000  Tot=              0.0000
 Quadrupole moment (field-independent basis, Debye-Ang):
   XX=             -6.0804   YY=             -6.0804   ZZ=            -13.4190
   XY=              0.0000   XZ=              0.0000   YZ=             -0.0000

 =-1.0150662\MP4SDQ=-1.0151988\CCSD=-1.018366\CCSD(T)=-1.018653\S2=0.80
 Normal termination of Gaussian 16 at Fri Feb  9 18:00:51 2024.
