 Gaussian 16, Revision A.03,
 Gaussian 16:  ES64L-G16RevA.03 25-Dec-2016

 ------------------
 #p CCSD(T)/cc-pVTZ
 ------------------

 -----
 H2_59
 -----
 Symbolic Z-matrix:
 Charge = -1 Multiplicity = 2

                         Standard orientation:
 ---------------------------------------------------------------------
 Center     Atomic      Atomic             Coordinates (Angstroms)
 Number     Number       Type             X           Y           Z
 ---------------------------------------------------------------------
      1          1           0        0.000000    0.000000    1.285000
      2          1           0        0.000000    0.000000   -1.285000
 ---------------------------------------------------------------------

 SCF Done:  E(UHF) = -0.977463545417     A.U. after    9 cycles
 E2 =    -0.2732807312D-01 EUMP2 =    -0.10047916185401D+01
 CCSD(T)
 CCSD(T)= -0.10182122600D+01

 The electronic state is 2-SGU.
 Alpha  occ. eigenvalues --   -0.18208  -0.13370
 Alpha virt. eigenvalues --    0.63194   0.63908   0.95242   1.02337   1.02337
 Alpha virt. eigenvalues --    1.06123   1.06123   1.23134   2.81493   2.83140
 Alpha virt. eigenvalues --    3.74969   3.75730   3.75730   3.75741   3.75741

  Beta  occ. eigenvalues --    0.00606
  Beta virt. eigenvalues --    0.26242   0.72718   0.74197   0.99622   1.07395
  Beta virt. eigenvalues --    1.07395   1.12027   1.12027   1.28839   2.89651
  Beta virt. eigenvalues --    2.91341   3.78457   3.79184   3.79184   3.79208

 Mulliken charges and spin densities:
               1          2
     1  H   -0.500000   0.500000
     2  H   -0.500000   0.500000
 Sum of Mulliken charges =  -1.00000   1.00000

 Dipole moment (field-independent basis, Debye):
    X=             -0.0000    Y=              0.0000    Z=              0.0000  Tot=              0.0000
 Quadrupole moment (field-independent basis, Debye-Ang):
   XX=             -6.0807   YY=             -6.0807   ZZ=            -13.5722
   XY=              0.0000   XZ=              0.0000   YZ=             -0.0000

 -1.014613\MP4SDQ=-1.0147175\CCSD=-1.0179254\CCSD(T)=-1.0182123\S2=0.80
 Normal termination of Gaussian 16 at Fri Feb  9 18:00:52 2024.
