 Gaussian 16, Revision A.03,
 Gaussian 16:  ES64L-G16RevA.03 25-Dec-2016

 ------------------
 #p CCSD(T)/cc-pVTZ
 ------------------

 -----
 H2_51
 -----
 Symbolic Z-matrix:
 Charge = -1 Multiplicity = 2

                         Standard orientation:
 ---------------------------------------------------------------------
 Center     Atomic      Atomic             Coordinates (Angstroms)
 Number     Number       Type             X           Y           Z
 ---------------------------------------------------------------------
      1          1           0        0.000000    0.000000    1.165000
      2          1           0        0.000000    0.000000   -1.165000
 ---------------------------------------------------------------------

 SCF Done:  E(UHF) = -0.980776773664     A.U. after    9 cycles
 E2 =    -0.2806792064D-01 EUMP2 =    -0.10088446943018D+01
 CCSD(T)
 CCSD(T)= -0.10218886605D+01

 The electronic state is 2-SGU.
 Alpha  occ. eigenvalues --   -0.18058  -0.11455
 Alpha virt. eigenvalues --    0.63492   0.65085   0.93346   1.01698   1.01698
 Alpha virt. eigenvalues --    1.08536   1.08536   1.31525   2.79323   2.86493
 Alpha virt. eigenvalues --    3.73038   3.76184   3.76184   3.76665   3.76665

  Beta  occ. eigenvalues --   -0.00191
  Beta virt. eigenvalues --    0.28119   0.73212   0.74297   0.98058   1.06456
  Beta virt. eigenvalues --    1.06456   1.14450   1.14450   1.37176   2.87357
  Beta virt. eigenvalues --    2.94450   3.76630   3.79473   3.79473   3.80026

 Mulliken charges and spin densities:
               1          2
     1  H   -0.500000   0.500000
     2  H   -0.500000   0.500000
 Sum of Mulliken charges =  -1.00000   1.00000

 Dipole moment (field-independent basis, Debye):
    X=             -0.0000    Y=             -0.0000    Z=             -0.0000  Tot=              0.0000
 Quadrupole moment (field-independent basis, Debye-Ang):
   XX=             -6.0771   YY=             -6.0771   ZZ=            -12.4393
   XY=              0.0000   XZ=              0.0000   YZ=             -0.0000

 =-1.0183913\MP4SDQ=-1.0187469\CCSD=-1.0215982\CCSD(T)=-1.0218887\S2=0.
 Normal termination of Gaussian 16 at Fri Feb  9 18:00:41 2024.
