 Gaussian 16, Revision A.03,
 Gaussian 16:  ES64L-G16RevA.03 25-Dec-2016

 ------------------
 #p CCSD(T)/cc-pVTZ
 ------------------

 -----
 H2_55
 -----
 Symbolic Z-matrix:
 Charge = -1 Multiplicity = 2

                         Standard orientation:
 ---------------------------------------------------------------------
 Center     Atomic      Atomic             Coordinates (Angstroms)
 Number     Number       Type             X           Y           Z
 ---------------------------------------------------------------------
      1          1           0        0.000000    0.000000    1.225000
      2          1           0        0.000000    0.000000   -1.225000
 ---------------------------------------------------------------------

 SCF Done:  E(UHF) = -0.979114157144     A.U. after    9 cycles
 E2 =    -0.2765778640D-01 EUMP2 =    -0.10067719435389D+01
 CCSD(T)
 CCSD(T)= -0.10200103966D+01

 The electronic state is 2-SGU.
 Alpha  occ. eigenvalues --   -0.18114  -0.12462
 Alpha virt. eigenvalues --    0.63314   0.64615   0.94028   1.02085   1.02085
 Alpha virt. eigenvalues --    1.07237   1.07237   1.27197   2.80609   2.84637
 Alpha virt. eigenvalues --    3.74269   3.76160   3.76160   3.76195   3.76195

  Beta  occ. eigenvalues --    0.00236
  Beta virt. eigenvalues --    0.27158   0.72925   0.74474   0.98478   1.07006
  Beta virt. eigenvalues --    1.07006   1.13146   1.13146   1.32875   2.88707
  Beta virt. eigenvalues --    2.92733   3.77810   3.79486   3.79486   3.79607

 Mulliken charges and spin densities:
               1          2
     1  H   -0.500000   0.500000
     2  H   -0.500000   0.500000
 Sum of Mulliken charges =  -1.00000   1.00000

 Dipole moment (field-independent basis, Debye):
    X=             -0.0000    Y=             -0.0000    Z=             -0.0000  Tot=              0.0000
 Quadrupole moment (field-independent basis, Debye-Ang):
   XX=             -6.0793   YY=             -6.0793   ZZ=            -12.9797
   XY=              0.0000   XZ=              0.0000   YZ=             -0.0000

 0=-1.0164615\MP4SDQ=-1.0166843\CCSD=-1.0197223\CCSD(T)=-1.0200104\S2=0
 Normal termination of Gaussian 16 at Fri Feb  9 18:00:47 2024.
