 Gaussian 16, Revision A.03,
 Gaussian 16:  ES64L-G16RevA.03 25-Dec-2016

 ------------------
 #p CCSD(T)/cc-pVTZ
 ------------------

 -----
 H2_57
 -----
 Symbolic Z-matrix:
 Charge = -1 Multiplicity = 2

                         Standard orientation:
 ---------------------------------------------------------------------
 Center     Atomic      Atomic             Coordinates (Angstroms)
 Number     Number       Type             X           Y           Z
 ---------------------------------------------------------------------
      1          1           0        0.000000    0.000000    1.255000
      2          1           0        0.000000    0.000000   -1.255000
 ---------------------------------------------------------------------

 SCF Done:  E(UHF) = -0.978285192915     A.U. after    9 cycles
 E2 =    -0.2748340539D-01 EUMP2 =    -0.10057685983094D+01
 CCSD(T)
 CCSD(T)= -0.10190997853D+01

 The electronic state is 2-SGU.
 Alpha  occ. eigenvalues --   -0.18156  -0.12928
 Alpha virt. eigenvalues --    0.63247   0.64286   0.94589   1.02228   1.02228
 Alpha virt. eigenvalues --    1.06658   1.06658   1.25128   2.81111   2.83841
 Alpha virt. eigenvalues --    3.74682   3.75961   3.75961   3.75979   3.75979

  Beta  occ. eigenvalues --    0.00428
  Beta virt. eigenvalues --    0.26695   0.72812   0.74386   0.98982   1.07220
  Beta virt. eigenvalues --    1.07220   1.12565   1.12565   1.30820   2.89239
  Beta virt. eigenvalues --    2.91993   3.78195   3.79394   3.79394   3.79395

 Mulliken charges and spin densities:
               1          2
     1  H   -0.500000   0.500000
     2  H   -0.500000   0.500000
 Sum of Mulliken charges =  -1.00000   1.00000

 Dipole moment (field-independent basis, Debye):
    X=             -0.0000    Y=             -0.0000    Z=              0.0000  Tot=              0.0000
 Quadrupole moment (field-independent basis, Debye-Ang):
   XX=             -6.0800   YY=             -6.0800   ZZ=            -13.2692
   XY=              0.0000   XZ=              0.0000   YZ=             -0.0000

 0=-1.0155256\MP4SDQ=-1.0156873\CCSD=-1.0188125\CCSD(T)=-1.0190998\S2=0
 Normal termination of Gaussian 16 at Fri Feb  9 18:00:49 2024.
