 Gaussian 16, Revision A.03,
 Gaussian 16:  ES64L-G16RevA.03 25-Dec-2016

 ------------------
 #p CCSD(T)/cc-pVTZ
 ------------------

 -----
 H2_50
 -----
 Symbolic Z-matrix:
 Charge = -1 Multiplicity = 2

                         Standard orientation:
 ---------------------------------------------------------------------
 Center     Atomic      Atomic             Coordinates (Angstroms)
 Number     Number       Type             X           Y           Z
 ---------------------------------------------------------------------
      1          1           0        0.000000    0.000000    1.150000
      2          1           0        0.000000    0.000000   -1.150000
 ---------------------------------------------------------------------

 SCF Done:  E(UHF) = -0.981189465103     A.U. after    9 cycles
 E2 =    -0.2818408408D-01 EUMP2 =    -0.10093735491826D+01
 CCSD(T)
 CCSD(T)= -0.10223670430D+01

 The electronic state is 2-SGU.
 Alpha  occ. eigenvalues --   -0.18051  -0.11186
 Alpha virt. eigenvalues --    0.63547   0.65159   0.93296   1.01581   1.01581
 Alpha virt. eigenvalues --    1.08892   1.08892   1.32640   2.78966   2.87004
 Alpha virt. eigenvalues --    3.72643   3.76129   3.76129   3.76781   3.76781

  Beta  occ. eigenvalues --   -0.00308
  Beta virt. eigenvalues --    0.28367   0.73298   0.74177   0.98102   1.06294
  Beta virt. eigenvalues --    1.06294   1.14807   1.14807   1.38283   2.86983
  Beta virt. eigenvalues --    2.94920   3.76242   3.79409   3.79409   3.80128

 Mulliken charges and spin densities:
               1          2
     1  H   -0.500000   0.500000
     2  H   -0.500000   0.500000
 Sum of Mulliken charges =  -1.00000   1.00000

 Dipole moment (field-independent basis, Debye):
    X=             -0.0000    Y=              0.0000    Z=              0.0000  Tot=              0.0000
 Quadrupole moment (field-independent basis, Debye-Ang):
   XX=             -6.0761   YY=             -6.0761   ZZ=            -12.3121
   XY=              0.0000   XZ=              0.0000   YZ=             -0.0000

 =-1.0188828\MP4SDQ=-1.0192736\CCSD=-1.0220758\CCSD(T)=-1.022367\S2=0.7
 Normal termination of Gaussian 16 at Fri Feb  9 18:00:40 2024.
