 Gaussian 16, Revision A.03,
 Gaussian 16:  ES64L-G16RevA.03 25-Dec-2016

 ------------------
 #p CCSD(T)/cc-pVTZ
 ------------------

 -----
 H2_65
 -----
 Symbolic Z-matrix:
 Charge = -1 Multiplicity = 2

                         Standard orientation:
 ---------------------------------------------------------------------
 Center     Atomic      Atomic             Coordinates (Angstroms)
 Number     Number       Type             X           Y           Z
 ---------------------------------------------------------------------
      1          1           0        0.000000    0.000000    1.375000
      2          1           0        0.000000    0.000000   -1.375000
 ---------------------------------------------------------------------

 SCF Done:  E(UHF) = -0.975069265550     A.U. after    9 cycles
 E2 =    -0.2696702766D-01 EUMP2 =    -0.10020362932063D+01
 CCSD(T)
 CCSD(T)= -0.10157027202D+01

 The electronic state is 2-SGU.
 Alpha  occ. eigenvalues --   -0.18406  -0.14573
 Alpha virt. eigenvalues --    0.62596   0.63110   0.97380   1.02479   1.02479
 Alpha virt. eigenvalues --    1.04758   1.04758   1.17672   2.81596   2.81863
 Alpha virt. eigenvalues --    3.75060   3.75060   3.75062   3.75062   3.75209

  Beta  occ. eigenvalues --    0.01073
  Beta virt. eigenvalues --    0.24945   0.72545   0.73221   1.01885   1.07700
  Beta virt. eigenvalues --    1.07700   1.10652   1.10652   1.23417   2.89908
  Beta virt. eigenvalues --    2.90113   3.78562   3.78562   3.78574   3.78574

 Mulliken charges and spin densities:
               1          2
     1  H   -0.500000   0.500000
     2  H   -0.500000   0.500000
 Sum of Mulliken charges =  -1.00000   1.00000

 Dipole moment (field-independent basis, Debye):
    X=             -0.0000    Y=             -0.0000    Z=              0.0000  Tot=              0.0000
 Quadrupole moment (field-independent basis, Debye-Ang):
   XX=             -6.0841   YY=             -6.0841   ZZ=            -14.5644
   XY=              0.0000   XZ=              0.0000   YZ=             -0.0000

 =-1.0120309\MP4SDQ=-1.011989\CCSD=-1.0154163\CCSD(T)=-1.0157027\S2=0.8
 Normal termination of Gaussian 16 at Fri Feb  9 18:01:01 2024.
