 Gaussian 16, Revision A.03,
 Gaussian 16:  ES64L-G16RevA.03 25-Dec-2016

 ------------------
 #p CCSD(T)/cc-pVTZ
 ------------------

 -----
 H2_60
 -----
 Symbolic Z-matrix:
 Charge = -1 Multiplicity = 2

                         Standard orientation:
 ---------------------------------------------------------------------
 Center     Atomic      Atomic             Coordinates (Angstroms)
 Number     Number       Type             X           Y           Z
 ---------------------------------------------------------------------
      1          1           0        0.000000    0.000000    1.300000
      2          1           0        0.000000    0.000000   -1.300000
 ---------------------------------------------------------------------

 SCF Done:  E(UHF) = -0.977056472730     A.U. after    9 cycles
 E2 =    -0.2725724679D-01 EUMP2 =    -0.10043137195230D+01
 CCSD(T)
 CCSD(T)= -0.10177777741D+01

 The electronic state is 2-SGU.
 Alpha  occ. eigenvalues --   -0.18236  -0.13583
 Alpha virt. eigenvalues --    0.63172   0.63704   0.95591   1.02379   1.02379
 Alpha virt. eigenvalues --    1.05872   1.05872   1.22167   2.81635   2.82825
 Alpha virt. eigenvalues --    3.75069   3.75615   3.75615   3.75624   3.75624

  Beta  occ. eigenvalues --    0.00691
  Beta virt. eigenvalues --    0.26020   0.72678   0.74072   0.99977   1.07468
  Beta virt. eigenvalues --    1.07468   1.11774   1.11774   1.27879   2.89809
  Beta virt. eigenvalues --    2.91048   3.78546   3.79078   3.79078   3.79100

 Mulliken charges and spin densities:
               1          2
     1  H   -0.500000   0.500000
     2  H   -0.500000   0.500000
 Sum of Mulliken charges =  -1.00000   1.00000

 Dipole moment (field-independent basis, Debye):
    X=             -0.0000    Y=              0.0000    Z=             -0.0000  Tot=              0.0000
 Quadrupole moment (field-independent basis, Debye-Ang):
   XX=             -6.0811   YY=             -6.0811   ZZ=            -13.7287
   XY=              0.0000   XZ=              0.0000   YZ=             -0.0000

 =-1.0141662\MP4SDQ=-1.0142435\CCSD=-1.0174911\CCSD(T)=-1.0177778\S2=0.
 Normal termination of Gaussian 16 at Fri Feb  9 18:00:54 2024.
