 Gaussian 16, Revision A.03,
 Gaussian 16:  ES64L-G16RevA.03 25-Dec-2016

 ------------------
 #p CCSD(T)/cc-pVTZ
 ------------------

 -----
 H2_66
 -----
 Symbolic Z-matrix:
 Charge = -1 Multiplicity = 2

                         Standard orientation:
 ---------------------------------------------------------------------
 Center     Atomic      Atomic             Coordinates (Angstroms)
 Number     Number       Type             X           Y           Z
 ---------------------------------------------------------------------
      1          1           0        0.000000    0.000000    1.390000
      2          1           0        0.000000    0.000000   -1.390000
 ---------------------------------------------------------------------

 SCF Done:  E(UHF) = -0.974682580543     A.U. after    9 cycles
 E2 =    -0.2692103131D-01 EUMP2 =    -0.10016036118482D+01
 CCSD(T)
 CCSD(T)= -0.10153073036D+01

 The electronic state is 2-SGU.
 Alpha  occ. eigenvalues --   -0.18444  -0.14756
 Alpha virt. eigenvalues --    0.62364   0.63106   0.97723   1.02479   1.02479
 Alpha virt. eigenvalues --    1.04562   1.04562   1.16844   2.81414   2.81817
 Alpha virt. eigenvalues --    3.74953   3.74953   3.74954   3.74954   3.75181

  Beta  occ. eigenvalues --    0.01142
  Beta virt. eigenvalues --    0.24737   0.72531   0.73022   1.02261   1.07723
  Beta virt. eigenvalues --    1.07723   1.10454   1.10454   1.22596   2.89741
  Beta virt. eigenvalues --    2.90084   3.78461   3.78461   3.78472   3.78472

 Mulliken charges and spin densities:
               1          2
     1  H   -0.500000   0.500000
     2  H   -0.500000   0.500000
 Sum of Mulliken charges =  -1.00000   1.00000

 Dipole moment (field-independent basis, Debye):
    X=             -0.0000    Y=             -0.0000    Z=              0.0000  Tot=              0.0000
 Quadrupole moment (field-independent basis, Debye-Ang):
   XX=             -6.0849   YY=             -6.0849   ZZ=            -14.7423
   XY=              0.0000   XZ=              0.0000   YZ=             -0.0000

 =-1.0116237\MP4SDQ=-1.0115614\CCSD=-1.0150208\CCSD(T)=-1.0153073\S2=0.
 Normal termination of Gaussian 16 at Fri Feb  9 18:01:02 2024.
