 Gaussian 16, Revision A.03,
 Gaussian 16:  ES64L-G16RevA.03 25-Dec-2016

 ------------------
 #p CCSD(T)/cc-pVTZ
 ------------------

 -----
 H2_69
 -----
 Symbolic Z-matrix:
 Charge = -1 Multiplicity = 2

                         Standard orientation:
 ---------------------------------------------------------------------
 Center     Atomic      Atomic             Coordinates (Angstroms)
 Number     Number       Type             X           Y           Z
 ---------------------------------------------------------------------
      1          1           0        0.000000    0.000000    1.435000
      2          1           0        0.000000    0.000000   -1.435000
 ---------------------------------------------------------------------

 SCF Done:  E(UHF) = -0.973545265096     A.U. after    9 cycles
 E2 =    -0.2680537512D-01 EUMP2 =    -0.10003506402141D+01
 CCSD(T)
 CCSD(T)= -0.10141590871D+01

 The electronic state is 2-SGU.
 Alpha  occ. eigenvalues --   -0.18565  -0.15282
 Alpha virt. eigenvalues --    0.61671   0.63110   0.98678   1.02444   1.02444
 Alpha virt. eigenvalues --    1.04021   1.04021   1.14513   2.80981   2.81528
 Alpha virt. eigenvalues --    3.74639   3.74639   3.74639   3.74639   3.74908

  Beta  occ. eigenvalues --    0.01337
  Beta virt. eigenvalues --    0.24126   0.72396   0.72511   1.03324   1.07749
  Beta virt. eigenvalues --    1.07749   1.09906   1.09906   1.20284   2.89343
  Beta virt. eigenvalues --    2.89840   3.78164   3.78164   3.78173   3.78173

 Mulliken charges and spin densities:
               1          2
     1  H   -0.500000   0.500000
     2  H   -0.500000   0.500000
 Sum of Mulliken charges =  -1.00000   1.00000

 Dipole moment (field-independent basis, Debye):
    X=             -0.0000    Y=             -0.0000    Z=              0.0000  Tot=              0.0000
 Quadrupole moment (field-independent basis, Debye-Ang):
   XX=             -6.0878   YY=             -6.0878   ZZ=            -15.2979
   XY=              0.0000   XZ=              0.0000   YZ=             -0.0000

 0=-1.0104412\MP4SDQ=-1.0103246\CCSD=-1.0138721\CCSD(T)=-1.0141591\S2=0
 Normal termination of Gaussian 16 at Fri Feb  9 18:01:06 2024.
