 Gaussian 16, Revision A.03,
 Gaussian 16:  ES64L-G16RevA.03 25-Dec-2016

 ------------------
 #p CCSD(T)/cc-pVTZ
 ------------------

 ----
 H2_6
 ----
 Symbolic Z-matrix:
 Charge = -1 Multiplicity = 2

                         Standard orientation:
 ---------------------------------------------------------------------
 Center     Atomic      Atomic             Coordinates (Angstroms)
 Number     Number       Type             X           Y           Z
 ---------------------------------------------------------------------
      1          1           0        0.000000    0.000000    0.490000
      2          1           0        0.000000    0.000000   -0.490000
 ---------------------------------------------------------------------

 SCF Done:  E(UHF) = -0.986485020443     A.U. after    9 cycles
 E2 =    -0.3743156817D-01 EUMP2 =    -0.10239165886163D+01
 CCSD(T)
 CCSD(T)= -0.10336990623D+01

 The electronic state is 2-SGU.
 Alpha  occ. eigenvalues --   -0.24739   0.10932
 Alpha virt. eigenvalues --    0.57945   0.80140   0.97269   0.97269   1.29389
 Alpha virt. eigenvalues --    1.34855   1.34855   1.77692   2.83243   2.88931
 Alpha virt. eigenvalues --    3.52836   3.52836   3.56801   3.56801   3.81551

  Beta  occ. eigenvalues --   -0.18925
  Beta virt. eigenvalues --    0.42647   0.60064   0.87977   0.99094   0.99094
  Beta virt. eigenvalues --    1.36143   1.39794   1.39794   1.81447   2.84478
  Beta virt. eigenvalues --    2.91431   3.53626   3.53626   3.57251   3.57251

 Mulliken charges and spin densities:
               1          2
     1  H   -0.500000   0.500000
     2  H   -0.500000   0.500000
 Sum of Mulliken charges =  -1.00000   1.00000

 Dipole moment (field-independent basis, Debye):
    X=             -0.0000    Y=              0.0000    Z=             -0.0000  Tot=              0.0000
 Quadrupole moment (field-independent basis, Debye-Ang):
   XX=             -5.7229   YY=             -5.7229   ZZ=            -11.0264
   XY=             -0.0000   XZ=              0.0000   YZ=              0.0000

 1.0312878\MP4SDQ=-1.0326977\CCSD=-1.0332809\CCSD(T)=-1.0336991\S2=0.75
 Normal termination of Gaussian 16 at Fri Feb  9 17:59:32 2024.
