 Gaussian 16, Revision A.03,
 Gaussian 16:  ES64L-G16RevA.03 25-Dec-2016

 ------------------
 #p CCSD(T)/cc-pVTZ
 ------------------

 -----
 H2_61
 -----
 Symbolic Z-matrix:
 Charge = -1 Multiplicity = 2

                         Standard orientation:
 ---------------------------------------------------------------------
 Center     Atomic      Atomic             Coordinates (Angstroms)
 Number     Number       Type             X           Y           Z
 ---------------------------------------------------------------------
      1          1           0        0.000000    0.000000    1.315000
      2          1           0        0.000000    0.000000   -1.315000
 ---------------------------------------------------------------------

 SCF Done:  E(UHF) = -0.976652323314     A.U. after    9 cycles
 E2 =    -0.2719082634D-01 EUMP2 =    -0.10038431496560D+01
 CCSD(T)
 CCSD(T)= -0.10173496908D+01

 The electronic state is 2-SGU.
 Alpha  occ. eigenvalues --   -0.18267  -0.13791
 Alpha virt. eigenvalues --    0.63154   0.63493   0.95947   1.02414   1.02414
 Alpha virt. eigenvalues --    1.05630   1.05630   1.21222   2.81744   2.82534
 Alpha virt. eigenvalues --    3.75142   3.75502   3.75502   3.75508   3.75508

  Beta  occ. eigenvalues --    0.00772
  Beta virt. eigenvalues --    0.25800   0.72642   0.73928   1.00347   1.07532
  Beta virt. eigenvalues --    1.07532   1.11531   1.11531   1.26941   2.89934
  Beta virt. eigenvalues --    2.90778   3.78610   3.78974   3.78974   3.78993

 Mulliken charges and spin densities:
               1          2
     1  H   -0.500000   0.500000
     2  H   -0.500000   0.500000
 Sum of Mulliken charges =  -1.00000   1.00000

 Dipole moment (field-independent basis, Debye):
    X=             -0.0000    Y=             -0.0000    Z=              0.0000  Tot=              0.0000
 Quadrupole moment (field-independent basis, Debye-Ang):
   XX=             -6.0816   YY=             -6.0816   ZZ=            -13.8888
   XY=              0.0000   XZ=              0.0000   YZ=             -0.0000

 0=-1.0137258\MP4SDQ=-1.0137771\CCSD=-1.0170632\CCSD(T)=-1.0173497\S2=0
 Normal termination of Gaussian 16 at Fri Feb  9 18:00:55 2024.
