 Gaussian 16, Revision A.03,
 Gaussian 16:  ES64L-G16RevA.03 25-Dec-2016

 ------------------
 #p CCSD(T)/cc-pVTZ
 ------------------

 -----
 H2_68
 -----
 Symbolic Z-matrix:
 Charge = -1 Multiplicity = 2

                         Standard orientation:
 ---------------------------------------------------------------------
 Center     Atomic      Atomic             Coordinates (Angstroms)
 Number     Number       Type             X           Y           Z
 ---------------------------------------------------------------------
      1          1           0        0.000000    0.000000    1.420000
      2          1           0        0.000000    0.000000   -1.420000
 ---------------------------------------------------------------------

 SCF Done:  E(UHF) = -0.973920571413     A.U. after    9 cycles
 E2 =    -0.2684029757D-01 EUMP2 =    -0.10007608689839D+01
 CCSD(T)
 CCSD(T)= -0.10145356048D+01

 The electronic state is 2-SGU.
 Alpha  occ. eigenvalues --   -0.18523  -0.15111
 Alpha virt. eigenvalues --    0.61901   0.63106   0.98373   1.02461   1.02461
 Alpha virt. eigenvalues --    1.04194   1.04194   1.15265   2.81108   2.81648
 Alpha virt. eigenvalues --    3.74742   3.74742   3.74743   3.74743   3.75011

  Beta  occ. eigenvalues --    0.01274
  Beta virt. eigenvalues --    0.24327   0.72514   0.72608   1.02984   1.07747
  Beta virt. eigenvalues --    1.07747   1.10081   1.10081   1.21029   2.89459
  Beta virt. eigenvalues --    2.89945   3.78262   3.78262   3.78271   3.78271

 Mulliken charges and spin densities:
               1          2
     1  H   -0.500000   0.500000
     2  H   -0.500000   0.500000
 Sum of Mulliken charges =  -1.00000   1.00000

 Dipole moment (field-independent basis, Debye):
    X=             -0.0000    Y=             -0.0000    Z=             -0.0000  Tot=              0.0000
 Quadrupole moment (field-independent basis, Debye-Ang):
   XX=             -6.0868   YY=             -6.0868   ZZ=            -15.1090
   XY=              0.0000   XZ=              0.0000   YZ=             -0.0000

 0=-1.010829\MP4SDQ=-1.0107293\CCSD=-1.0142488\CCSD(T)=-1.0145356\S2=0.
 Normal termination of Gaussian 16 at Fri Feb  9 18:01:05 2024.
