 Gaussian 16, Revision A.03,
 Gaussian 16:  ES64L-G16RevA.03 25-Dec-2016

 ------------------
 #p CCSD(T)/cc-pVTZ
 ------------------

 -----
 H2_62
 -----
 Symbolic Z-matrix:
 Charge = -1 Multiplicity = 2

                         Standard orientation:
 ---------------------------------------------------------------------
 Center     Atomic      Atomic             Coordinates (Angstroms)
 Number     Number       Type             X           Y           Z
 ---------------------------------------------------------------------
      1          1           0        0.000000    0.000000    1.330000
      2          1           0        0.000000    0.000000   -1.330000
 ---------------------------------------------------------------------

 SCF Done:  E(UHF) = -0.976251347775     A.U. after    9 cycles
 E2 =    -0.2712870063D-01 EUMP2 =    -0.10033800484058D+01
 CCSD(T)
 CCSD(T)= -0.10169281097D+01

 The electronic state is 2-SGU.
 Alpha  occ. eigenvalues --   -0.18299  -0.13993
 Alpha virt. eigenvalues --    0.63139   0.63275   0.96309   1.02440   1.02440
 Alpha virt. eigenvalues --    1.05398   1.05398   1.20300   2.81821   2.82266
 Alpha virt. eigenvalues --    3.75191   3.75390   3.75390   3.75395   3.75395

  Beta  occ. eigenvalues --    0.00852
  Beta virt. eigenvalues --    0.25583   0.72612   0.73769   1.00728   1.07586
  Beta virt. eigenvalues --    1.07586   1.11297   1.11297   1.26025   2.90026
  Beta virt. eigenvalues --    2.90529   3.78651   3.78870   3.78870   3.78886

 Mulliken charges and spin densities:
               1          2
     1  H   -0.500000   0.500000
     2  H   -0.500000   0.500000
 Sum of Mulliken charges =  -1.00000   1.00000

 Dipole moment (field-independent basis, Debye):
    X=             -0.0000    Y=              0.0000    Z=              0.0000  Tot=              0.0000
 Quadrupole moment (field-independent basis, Debye-Ang):
   XX=             -6.0821   YY=             -6.0821   ZZ=            -14.0523
   XY=              0.0000   XZ=              0.0000   YZ=             -0.0000

 -1.0132921\MP4SDQ=-1.0133184\CCSD=-1.0166417\CCSD(T)=-1.0169281\S2=0.8
 Normal termination of Gaussian 16 at Fri Feb  9 18:00:57 2024.
