 Gaussian 16, Revision A.03,
 Gaussian 16:  ES64L-G16RevA.03 25-Dec-2016

 ------------------
 #p CCSD(T)/cc-pVTZ
 ------------------

 -----
 H2_74
 -----
 Symbolic Z-matrix:
 Charge = -1 Multiplicity = 2

                         Standard orientation:
 ---------------------------------------------------------------------
 Center     Atomic      Atomic             Coordinates (Angstroms)
 Number     Number       Type             X           Y           Z
 ---------------------------------------------------------------------
      1          1           0        0.000000    0.000000    1.510000
      2          1           0        0.000000    0.000000   -1.510000
 ---------------------------------------------------------------------

 SCF Done:  E(UHF) = -0.971724350277     A.U. after    9 cycles
 E2 =    -0.2668172389D-01 EUMP2 =    -0.99840607416301D+00
 CCSD(T)
 CCSD(T)= -0.10123644632D+01

 The electronic state is 2-SGU.
 Alpha  occ. eigenvalues --   -0.18781  -0.16076
 Alpha virt. eigenvalues --    0.60556   0.63151   0.99947   1.02295   1.02295
 Alpha virt. eigenvalues --    1.03257   1.03257   1.11139   2.80568   2.80655
 Alpha virt. eigenvalues --    3.74145   3.74145   3.74145   3.74145   3.74401

  Beta  occ. eigenvalues --    0.01624
  Beta virt. eigenvalues --    0.23150   0.71334   0.72538   1.04770   1.07678
  Beta virt. eigenvalues --    1.07678   1.09129   1.09129   1.16936   2.88968
  Beta virt. eigenvalues --    2.89037   3.77692   3.77692   3.77698   3.77698

 Mulliken charges and spin densities:
               1          2
     1  H   -0.500000   0.500000
     2  H   -0.500000   0.500000
 Sum of Mulliken charges =  -1.00000   1.00000

 Dipole moment (field-independent basis, Debye):
    X=             -0.0000    Y=             -0.0000    Z=             -0.0000  Tot=              0.0000
 Quadrupole moment (field-independent basis, Debye-Ang):
   XX=             -6.0943   YY=             -6.0943   ZZ=            -16.2970
   XY=              0.0000   XZ=              0.0000   YZ=             -0.0000

 =-1.0085917\MP4SDQ=-1.0084089\CCSD=-1.0120759\CCSD(T)=-1.0123645\S2=0.
 Normal termination of Gaussian 16 at Fri Feb  9 18:01:13 2024.
