 Gaussian 16, Revision A.03,
 Gaussian 16:  ES64L-G16RevA.03 25-Dec-2016

 ------------------
 #p CCSD(T)/cc-pVTZ
 ------------------

 -----
 H2_79
 -----
 Symbolic Z-matrix:
 Charge = -1 Multiplicity = 2

                         Standard orientation:
 ---------------------------------------------------------------------
 Center     Atomic      Atomic             Coordinates (Angstroms)
 Number     Number       Type             X           Y           Z
 ---------------------------------------------------------------------
      1          1           0        0.000000    0.000000    1.585000
      2          1           0        0.000000    0.000000   -1.585000
 ---------------------------------------------------------------------

 SCF Done:  E(UHF) = -0.969989819120     A.U. after    9 cycles
 E2 =    -0.2663563255D-01 EUMP2 =    -0.99662545166633D+00
 CCSD(T)
 CCSD(T)= -0.10107023492D+01

 The electronic state is 2-SGU.
 Alpha  occ. eigenvalues --   -0.19004  -0.16775
 Alpha virt. eigenvalues --    0.59548   0.63205   1.00779   1.02068   1.02068
 Alpha virt. eigenvalues --    1.02634   1.02634   1.08390   2.79513   2.80414
 Alpha virt. eigenvalues --    3.73692   3.73692   3.73692   3.73692   3.73925

  Beta  occ. eigenvalues --    0.01873
  Beta virt. eigenvalues --    0.22225   0.70330   0.72603   1.05751   1.07507
  Beta virt. eigenvalues --    1.07507   1.08489   1.08489   1.14202   2.87953
  Beta virt. eigenvalues --    2.88831   3.77252   3.77252   3.77257   3.77257

 Mulliken charges and spin densities:
               1          2
     1  H   -0.500000   0.500000
     2  H   -0.500000   0.500000
 Sum of Mulliken charges =  -1.00000   1.00000

 Dipole moment (field-independent basis, Debye):
    X=             -0.0000    Y=              0.0000    Z=              0.0000  Tot=              0.0000
 Quadrupole moment (field-independent basis, Debye-Ang):
   XX=             -6.1020   YY=             -6.1020   ZZ=            -17.3866
   XY=              0.0000   XZ=              0.0000   YZ=             -0.0000

 =-1.0068774\MP4SDQ=-1.0066588\CCSD=-1.0104115\CCSD(T)=-1.0107023\S2=0.
 Normal termination of Gaussian 16 at Fri Feb  9 18:01:21 2024.
