 Gaussian 16, Revision A.03,
 Gaussian 16:  ES64L-G16RevA.03 25-Dec-2016

 ------------------
 #p CCSD(T)/cc-pVTZ
 ------------------

 -----
 H2_76
 -----
 Symbolic Z-matrix:
 Charge = -1 Multiplicity = 2

                         Standard orientation:
 ---------------------------------------------------------------------
 Center     Atomic      Atomic             Coordinates (Angstroms)
 Number     Number       Type             X           Y           Z
 ---------------------------------------------------------------------
      1          1           0        0.000000    0.000000    1.540000
      2          1           0        0.000000    0.000000   -1.540000
 ---------------------------------------------------------------------

 SCF Done:  E(UHF) = -0.971020731386     A.U. after    9 cycles
 E2 =    -0.2665451963D-01 EUMP2 =    -0.99767525101772D+00
 CCSD(T)
 CCSD(T)= -0.10116847777D+01

 The electronic state is 2-SGU.
 Alpha  occ. eigenvalues --   -0.18870  -0.16366
 Alpha virt. eigenvalues --    0.60138   0.63173   1.00331   1.02211   1.02211
 Alpha virt. eigenvalues --    1.02993   1.02993   1.09967   2.80217   2.80483
 Alpha virt. eigenvalues --    3.73959   3.73959   3.73959   3.73959   3.74206

  Beta  occ. eigenvalues --    0.01728
  Beta virt. eigenvalues --    0.22774   0.70922   0.72563   1.05217   1.07619
  Beta virt. eigenvalues --    1.07619   1.08859   1.08859   1.15770   2.88624
  Beta virt. eigenvalues --    2.88893   3.77512   3.77512   3.77517   3.77517

 Mulliken charges and spin densities:
               1          2
     1  H   -0.500000   0.500000
     2  H   -0.500000   0.500000
 Sum of Mulliken charges =  -1.00000   1.00000

 Dipole moment (field-independent basis, Debye):
    X=             -0.0000    Y=              0.0000    Z=              0.0000  Tot=              0.0000
 Quadrupole moment (field-independent basis, Debye-Ang):
   XX=             -6.0972   YY=             -6.0972   ZZ=            -16.7221
   XY=              0.0000   XZ=              0.0000   YZ=             -0.0000

 =-1.0078908\MP4SDQ=-1.0076901\CCSD=-1.0113954\CCSD(T)=-1.0116848\S2=0.
 Normal termination of Gaussian 16 at Fri Feb  9 18:01:16 2024.
