 Gaussian 16, Revision A.03,
 Gaussian 16:  ES64L-G16RevA.03 25-Dec-2016

 ------------------
 #p CCSD(T)/cc-pVTZ
 ------------------

 -----
 H2_71
 -----
 Symbolic Z-matrix:
 Charge = -1 Multiplicity = 2

                         Standard orientation:
 ---------------------------------------------------------------------
 Center     Atomic      Atomic             Coordinates (Angstroms)
 Number     Number       Type             X           Y           Z
 ---------------------------------------------------------------------
      1          1           0        0.000000    0.000000    1.465000
      2          1           0        0.000000    0.000000   -1.465000
 ---------------------------------------------------------------------

 SCF Done:  E(UHF) = -0.972805934905     A.U. after    9 cycles
 E2 =    -0.2674597507D-01 EUMP2 =    -0.99955190997434D+00
 CCSD(T)
 CCSD(T)= -0.10134241065D+01

 The electronic state is 2-SGU.
 Alpha  occ. eigenvalues --   -0.18649  -0.15611
 Alpha virt. eigenvalues --    0.61216   0.63122   0.99237   1.02397   1.02397
 Alpha virt. eigenvalues --    1.03696   1.03696   1.13087   2.80776   2.81227
 Alpha virt. eigenvalues --    3.74437   3.74437   3.74437   3.74437   3.74702

  Beta  occ. eigenvalues --    0.01457
  Beta virt. eigenvalues --    0.23729   0.71970   0.72515   1.03957   1.07736
  Beta virt. eigenvalues --    1.07736   1.09577   1.09577   1.18869   2.89156
  Beta virt. eigenvalues --    2.89568   3.77972   3.77972   3.77979   3.77979

 Mulliken charges and spin densities:
               1          2
     1  H   -0.500000   0.500000
     2  H   -0.500000   0.500000
 Sum of Mulliken charges =  -1.00000   1.00000

 Dipole moment (field-independent basis, Debye):
    X=             -0.0000    Y=              0.0000    Z=              0.0000  Tot=              0.0000
 Quadrupole moment (field-independent basis, Debye-Ang):
   XX=             -6.0902   YY=             -6.0902   ZZ=            -15.6866
   XY=              0.0000   XZ=              0.0000   YZ=             -0.0000

 0=-1.0096839\MP4SDQ=-1.0095371\CCSD=-1.0131366\CCSD(T)=-1.0134241\S2=0
 Normal termination of Gaussian 16 at Fri Feb  9 18:01:09 2024.
