 Gaussian 16, Revision A.03,
 Gaussian 16:  ES64L-G16RevA.03 25-Dec-2016

 ------------------
 #p CCSD(T)/cc-pVTZ
 ------------------

 ----
 H2_7
 ----
 Symbolic Z-matrix:
 Charge = -1 Multiplicity = 2

                         Standard orientation:
 ---------------------------------------------------------------------
 Center     Atomic      Atomic             Coordinates (Angstroms)
 Number     Number       Type             X           Y           Z
 ---------------------------------------------------------------------
      1          1           0        0.000000    0.000000    0.505000
      2          1           0        0.000000    0.000000   -0.505000
 ---------------------------------------------------------------------

 SCF Done:  E(UHF) = -0.986982144214     A.U. after    9 cycles
 E2 =    -0.3736516262D-01 EUMP2 =    -0.10243473068388D+01
 CCSD(T)
 CCSD(T)= -0.10342340618D+01

 The electronic state is 2-SGU.
 Alpha  occ. eigenvalues --   -0.24231   0.10289
 Alpha virt. eigenvalues --    0.58371   0.79052   0.97218   0.97218   1.28302
 Alpha virt. eigenvalues --    1.34189   1.34189   1.77271   2.84538   2.92505
 Alpha virt. eigenvalues --    3.54028   3.54028   3.54816   3.54816   3.78120

  Beta  occ. eigenvalues --   -0.17940
  Beta virt. eigenvalues --    0.42268   0.60482   0.87133   0.99108   0.99108
  Beta virt. eigenvalues --    1.35135   1.39200   1.39200   1.81103   2.86009
  Beta virt. eigenvalues --    2.95165   3.54914   3.54914   3.55394   3.55394

 Mulliken charges and spin densities:
               1          2
     1  H   -0.500000   0.500000
     2  H   -0.500000   0.500000
 Sum of Mulliken charges =  -1.00000   1.00000

 Dipole moment (field-independent basis, Debye):
    X=             -0.0000    Y=              0.0000    Z=              0.0000  Tot=              0.0000
 Quadrupole moment (field-independent basis, Debye-Ang):
   XX=             -5.7361   YY=             -5.7361   ZZ=            -10.9434
   XY=             -0.0000   XZ=              0.0000   YZ=              0.0000

 =-1.0317616\MP4SDQ=-1.0332169\CCSD=-1.0338129\CCSD(T)=-1.0342341\S2=0.
 Normal termination of Gaussian 16 at Fri Feb  9 17:59:33 2024.
