 Gaussian 16, Revision A.03,
 Gaussian 16:  ES64L-G16RevA.03 25-Dec-2016

 ------------------
 #p CCSD(T)/cc-pVTZ
 ------------------

 -----
 H2_70
 -----
 Symbolic Z-matrix:
 Charge = -1 Multiplicity = 2

                         Standard orientation:
 ---------------------------------------------------------------------
 Center     Atomic      Atomic             Coordinates (Angstroms)
 Number     Number       Type             X           Y           Z
 ---------------------------------------------------------------------
      1          1           0        0.000000    0.000000    1.450000
      2          1           0        0.000000    0.000000   -1.450000
 ---------------------------------------------------------------------

 SCF Done:  E(UHF) = -0.973173733073     A.U. after    9 cycles
 E2 =    -0.2677396308D-01 EUMP2 =    -0.99994769615721D+00
 CCSD(T)
 CCSD(T)= -0.10137886401D+01

 The electronic state is 2-SGU.
 Alpha  occ. eigenvalues --   -0.18607  -0.15449
 Alpha virt. eigenvalues --    0.61442   0.63115   0.98966   1.02423   1.02423
 Alpha virt. eigenvalues --    1.03855   1.03855   1.13787   2.80871   2.81387
 Alpha virt. eigenvalues --    3.74537   3.74537   3.74537   3.74537   3.74805

  Beta  occ. eigenvalues --    0.01398
  Beta virt. eigenvalues --    0.23926   0.72183   0.72512   1.03649   1.07745
  Beta virt. eigenvalues --    1.07745   1.09738   1.09738   1.19564   2.89243
  Beta virt. eigenvalues --    2.89713   3.78067   3.78067   3.78075   3.78075

 Mulliken charges and spin densities:
               1          2
     1  H   -0.500000   0.500000
     2  H   -0.500000   0.500000
 Sum of Mulliken charges =  -1.00000   1.00000

 Dipole moment (field-independent basis, Debye):
    X=             -0.0000    Y=              0.0000    Z=              0.0000  Tot=              0.0000
 Quadrupole moment (field-independent basis, Debye-Ang):
   XX=             -6.0890   YY=             -6.0890   ZZ=            -15.4904
   XY=              0.0000   XZ=              0.0000   YZ=             -0.0000

 =-1.0100595\MP4SDQ=-1.0099272\CCSD=-1.0135014\CCSD(T)=-1.0137886\S2=0.
 Normal termination of Gaussian 16 at Fri Feb  9 18:01:08 2024.
