 Gaussian 16, Revision A.03,
 Gaussian 16:  ES64L-G16RevA.03 25-Dec-2016

 ------------------
 #p CCSD(T)/cc-pVTZ
 ------------------

 -----
 H2_77
 -----
 Symbolic Z-matrix:
 Charge = -1 Multiplicity = 2

                         Standard orientation:
 ---------------------------------------------------------------------
 Center     Atomic      Atomic             Coordinates (Angstroms)
 Number     Number       Type             X           Y           Z
 ---------------------------------------------------------------------
      1          1           0        0.000000    0.000000    1.555000
      2          1           0        0.000000    0.000000   -1.555000
 ---------------------------------------------------------------------

 SCF Done:  E(UHF) = -0.970673908545     A.U. after    9 cycles
 E2 =    -0.2664537576D-01 EUMP2 =    -0.99731928430072D+00
 CCSD(T)
 CCSD(T)= -0.10113524993D+01

 The electronic state is 2-SGU.
 Alpha  occ. eigenvalues --   -0.18915  -0.16506
 Alpha virt. eigenvalues --    0.59936   0.63185   1.00497   1.02166   1.02166
 Alpha virt. eigenvalues --    1.02869   1.02869   1.09417   2.79987   2.80454
 Alpha virt. eigenvalues --    3.73868   3.73868   3.73868   3.73868   3.74111

  Beta  occ. eigenvalues --    0.01777
  Beta virt. eigenvalues --    0.22589   0.70720   0.72576   1.05413   1.07585
  Beta virt. eigenvalues --    1.07585   1.08731   1.08731   1.15224   2.88406
  Beta virt. eigenvalues --    2.88866   3.77424   3.77424   3.77429   3.77429

 Mulliken charges and spin densities:
               1          2
     1  H   -0.500000   0.500000
     2  H   -0.500000   0.500000
 Sum of Mulliken charges =  -1.00000   1.00000

 Dipole moment (field-independent basis, Debye):
    X=             -0.0000    Y=             -0.0000    Z=              0.0000  Tot=              0.0000
 Quadrupole moment (field-independent basis, Debye-Ang):
   XX=             -6.0988   YY=             -6.0988   ZZ=            -16.9401
   XY=              0.0000   XZ=              0.0000   YZ=             -0.0000

 0=-1.0075481\MP4SDQ=-1.0073403\CCSD=-1.0110626\CCSD(T)=-1.0113525\S2=0
 Normal termination of Gaussian 16 at Fri Feb  9 18:01:18 2024.
