 Gaussian 16, Revision A.03,
 Gaussian 16:  ES64L-G16RevA.03 25-Dec-2016

 ------------------
 #p CCSD(T)/cc-pVTZ
 ------------------

 -----
 H2_73
 -----
 Symbolic Z-matrix:
 Charge = -1 Multiplicity = 2

                         Standard orientation:
 ---------------------------------------------------------------------
 Center     Atomic      Atomic             Coordinates (Angstroms)
 Number     Number       Type             X           Y           Z
 ---------------------------------------------------------------------
      1          1           0        0.000000    0.000000    1.495000
      2          1           0        0.000000    0.000000   -1.495000
 ---------------------------------------------------------------------

 SCF Done:  E(UHF) = -0.972081312578     A.U. after    9 cycles
 E2 =    -0.2669993656D-01 EUMP2 =    -0.99878124913858D+00
 CCSD(T)
 CCSD(T)= -0.10127121735D+01

 The electronic state is 2-SGU.
 Alpha  occ. eigenvalues --   -0.18737  -0.15925
 Alpha virt. eigenvalues --    0.60772   0.63140   0.99728   1.02333   1.02333
 Alpha virt. eigenvalues --    1.03398   1.03398   1.11763   2.80625   2.80859
 Alpha virt. eigenvalues --    3.74241   3.74241   3.74241   3.74241   3.74500

  Beta  occ. eigenvalues --    0.01570
  Beta virt. eigenvalues --    0.23341   0.71544   0.72528   1.04518   1.07702
  Beta virt. eigenvalues --    1.07702   1.09273   1.09273   1.17555   2.89020
  Beta virt. eigenvalues --    2.89228   3.77784   3.77784   3.77791   3.77791

 Mulliken charges and spin densities:
               1          2
     1  H   -0.500000   0.500000
     2  H   -0.500000   0.500000
 Sum of Mulliken charges =  -1.00000   1.00000

 Dipole moment (field-independent basis, Debye):
    X=             -0.0000    Y=             -0.0000    Z=             -0.0000  Tot=              0.0000
 Quadrupole moment (field-independent basis, Debye-Ang):
   XX=             -6.0929   YY=             -6.0929   ZZ=            -16.0899
   XY=              0.0000   XZ=              0.0000   YZ=             -0.0000

 0=-1.0089501\MP4SDQ=-1.0087781\CCSD=-1.012424\CCSD(T)=-1.0127122\S2=0.
 Normal termination of Gaussian 16 at Fri Feb  9 18:01:12 2024.
