 Gaussian 16, Revision A.03,
 Gaussian 16:  ES64L-G16RevA.03 25-Dec-2016

 ------------------
 #p CCSD(T)/cc-pVTZ
 ------------------

 -----
 H2_75
 -----
 Symbolic Z-matrix:
 Charge = -1 Multiplicity = 2

                         Standard orientation:
 ---------------------------------------------------------------------
 Center     Atomic      Atomic             Coordinates (Angstroms)
 Number     Number       Type             X           Y           Z
 ---------------------------------------------------------------------
      1          1           0        0.000000    0.000000    1.525000
      2          1           0        0.000000    0.000000   -1.525000
 ---------------------------------------------------------------------

 SCF Done:  E(UHF) = -0.971370850664     A.U. after    9 cycles
 E2 =    -0.2666661052D-01 EUMP2 =    -0.99803746118016D+00
 CCSD(T)
 CCSD(T)= -0.10120220491D+01

 The electronic state is 2-SGU.
 Alpha  occ. eigenvalues --   -0.18825  -0.16223
 Alpha virt. eigenvalues --    0.60345   0.63162   1.00147   1.02255   1.02255
 Alpha virt. eigenvalues --    1.03122   1.03122   1.10540   2.80441   2.80521
 Alpha virt. eigenvalues --    3.74051   3.74051   3.74051   3.74051   3.74303

  Beta  occ. eigenvalues --    0.01677
  Beta virt. eigenvalues --    0.22961   0.71127   0.72550   1.05003   1.07651
  Beta virt. eigenvalues --    1.07651   1.08992   1.08992   1.16341   2.88835
  Beta virt. eigenvalues --    2.88926   3.77601   3.77601   3.77607   3.77607

 Mulliken charges and spin densities:
               1          2
     1  H   -0.500000   0.500000
     2  H   -0.500000   0.500000
 Sum of Mulliken charges =  -1.00000   1.00000

 Dipole moment (field-independent basis, Debye):
    X=             -0.0000    Y=             -0.0000    Z=              0.0000  Tot=              0.0000
 Quadrupole moment (field-independent basis, Debye-Ang):
   XX=             -6.0957   YY=             -6.0957   ZZ=            -16.5078
   XY=              0.0000   XZ=              0.0000   YZ=             -0.0000

 0=-1.0082386\MP4SDQ=-1.0080463\CCSD=-1.0117331\CCSD(T)=-1.012022\S2=0.
 Normal termination of Gaussian 16 at Fri Feb  9 18:01:15 2024.
