 Gaussian 16, Revision A.03,
 Gaussian 16:  ES64L-G16RevA.03 25-Dec-2016

 ------------------
 #p CCSD(T)/cc-pVTZ
 ------------------

 -----
 H2_72
 -----
 Symbolic Z-matrix:
 Charge = -1 Multiplicity = 2

                         Standard orientation:
 ---------------------------------------------------------------------
 Center     Atomic      Atomic             Coordinates (Angstroms)
 Number     Number       Type             X           Y           Z
 ---------------------------------------------------------------------
      1          1           0        0.000000    0.000000    1.480000
      2          1           0        0.000000    0.000000   -1.480000
 ---------------------------------------------------------------------

 SCF Done:  E(UHF) = -0.972441816408     A.U. after    9 cycles
 E2 =    -0.2672132691D-01 EUMP2 =    -0.99916314332163D+00
 CCSD(T)
 CCSD(T)= -0.10130653358D+01

 The electronic state is 2-SGU.
 Alpha  occ. eigenvalues --   -0.18693  -0.15770
 Alpha virt. eigenvalues --    0.60992   0.63130   0.99492   1.02367   1.02367
 Alpha virt. eigenvalues --    1.03544   1.03544   1.12412   2.80694   2.81050
 Alpha virt. eigenvalues --    3.74338   3.74338   3.74338   3.74338   3.74601

  Beta  occ. eigenvalues --    0.01514
  Beta virt. eigenvalues --    0.23534   0.71757   0.72520   1.04247   1.07721
  Beta virt. eigenvalues --    1.07721   1.09422   1.09422   1.18199   2.89082
  Beta virt. eigenvalues --    2.89405   3.77877   3.77877   3.77884   3.77884

 Mulliken charges and spin densities:
               1          2
     1  H   -0.500000   0.500000
     2  H   -0.500000   0.500000
 Sum of Mulliken charges =  -1.00000   1.00000

 Dipole moment (field-independent basis, Debye):
    X=             -0.0000    Y=              0.0000    Z=             -0.0000  Tot=              0.0000
 Quadrupole moment (field-independent basis, Debye-Ang):
   XX=             -6.0915   YY=             -6.0915   ZZ=            -15.8864
   XY=              0.0000   XZ=              0.0000   YZ=             -0.0000

 =-1.0093141\MP4SDQ=-1.0091542\CCSD=-1.0127775\CCSD(T)=-1.0130653\S2=0.
 Normal termination of Gaussian 16 at Fri Feb  9 18:01:11 2024.
