 Gaussian 16, Revision A.03,
 Gaussian 16:  ES64L-G16RevA.03 25-Dec-2016

 ------------------
 #p CCSD(T)/cc-pVTZ
 ------------------

 -----
 H2_80
 -----
 Symbolic Z-matrix:
 Charge = -1 Multiplicity = 2

                         Standard orientation:
 ---------------------------------------------------------------------
 Center     Atomic      Atomic             Coordinates (Angstroms)
 Number     Number       Type             X           Y           Z
 ---------------------------------------------------------------------
      1          1           0        0.000000    0.000000    1.600000
      2          1           0        0.000000    0.000000   -1.600000
 ---------------------------------------------------------------------

 SCF Done:  E(UHF) = -0.969652391711     A.U. after    9 cycles
 E2 =    -0.2663488703D-01 EUMP2 =    -0.99628727873898D+00
 CCSD(T)
 CCSD(T)= -0.10103842075D+01

 The electronic state is 2-SGU.
 Alpha  occ. eigenvalues --   -0.19049  -0.16904
 Alpha virt. eigenvalues --    0.59362   0.63214   1.00896   1.02017   1.02017
 Alpha virt. eigenvalues --    1.02524   1.02524   1.07911   2.79272   2.80402
 Alpha virt. eigenvalues --    3.73606   3.73606   3.73607   3.73607   3.73835

  Beta  occ. eigenvalues --    0.01918
  Beta virt. eigenvalues --    0.22046   0.70141   0.72616   1.05894   1.07464
  Beta virt. eigenvalues --    1.07464   1.08375   1.08375   1.13725   2.87722
  Beta virt. eigenvalues --    2.88820   3.77168   3.77168   3.77172   3.77172

 Mulliken charges and spin densities:
               1          2
     1  H   -0.500000   0.500000
     2  H   -0.500000   0.500000
 Sum of Mulliken charges =  -1.00000   1.00000

 Dipole moment (field-independent basis, Debye):
    X=             -0.0000    Y=              0.0000    Z=              0.0000  Tot=              0.0000
 Quadrupole moment (field-independent basis, Debye-Ang):
   XX=             -6.1036   YY=             -6.1036   ZZ=            -17.6152
   XY=              0.0000   XZ=              0.0000   YZ=             -0.0000

 =-1.0065491\MP4SDQ=-1.0063269\CCSD=-1.0100927\CCSD(T)=-1.0103842\S2=0.
 Normal termination of Gaussian 16 at Fri Feb  9 18:01:22 2024.
