 Gaussian 16, Revision A.03,
 Gaussian 16:  ES64L-G16RevA.03 25-Dec-2016

 ------------------
 #p CCSD(T)/cc-pVTZ
 ------------------

 -----
 H2_89
 -----
 Symbolic Z-matrix:
 Charge = -1 Multiplicity = 2

                         Standard orientation:
 ---------------------------------------------------------------------
 Center     Atomic      Atomic             Coordinates (Angstroms)
 Number     Number       Type             X           Y           Z
 ---------------------------------------------------------------------
      1          1           0        0.000000    0.000000    1.735000
      2          1           0        0.000000    0.000000   -1.735000
 ---------------------------------------------------------------------

 SCF Done:  E(UHF) = -0.966742627532     A.U. after    9 cycles
 E2 =    -0.2673895438D-01 EUMP2 =    -0.99348158191613D+00
 CCSD(T)
 CCSD(T)= -0.10077092879D+01

 The electronic state is 2-SGU.
 Alpha  occ. eigenvalues --   -0.19434  -0.17920
 Alpha virt. eigenvalues --    0.57964   0.63186   1.01381   1.01515   1.01515
 Alpha virt. eigenvalues --    1.01692   1.01692   1.04542   2.77205   2.80374
 Alpha virt. eigenvalues --    3.72913   3.72913   3.72913   3.72913   3.73096

  Beta  occ. eigenvalues --    0.02283
  Beta virt. eigenvalues --    0.20520   0.68671   0.72645   1.06552   1.07011
  Beta virt. eigenvalues --    1.07011   1.07499   1.07499   1.10352   2.85713
  Beta virt. eigenvalues --    2.88777   3.76478   3.76478   3.76481   3.76481

 Mulliken charges and spin densities:
               1          2
     1  H   -0.500000   0.500000
     2  H   -0.500000   0.500000
 Sum of Mulliken charges =  -1.00000   1.00000

 Dipole moment (field-independent basis, Debye):
    X=             -0.0000    Y=              0.0000    Z=             -0.0000  Tot=              0.0000
 Quadrupole moment (field-independent basis, Debye-Ang):
   XX=             -6.1177   YY=             -6.1177   ZZ=            -19.8235
   XY=              0.0000   XZ=              0.0000   YZ=             -0.0000

 0=-1.0037851\MP4SDQ=-1.0035801\CCSD=-1.0074114\CCSD(T)=-1.0077093\S2=0
 Normal termination of Gaussian 16 at Fri Feb  9 18:01:43 2024.
