 Gaussian 16, Revision A.03,
 Gaussian 16:  ES64L-G16RevA.03 25-Dec-2016

 ------------------
 #p CCSD(T)/cc-pVTZ
 ------------------

 -----
 H2_86
 -----
 Symbolic Z-matrix:
 Charge = -1 Multiplicity = 2

                         Standard orientation:
 ---------------------------------------------------------------------
 Center     Atomic      Atomic             Coordinates (Angstroms)
 Number     Number       Type             X           Y           Z
 ---------------------------------------------------------------------
      1          1           0        0.000000    0.000000    1.690000
      2          1           0        0.000000    0.000000   -1.690000
 ---------------------------------------------------------------------

 SCF Done:  E(UHF) = -0.967688150220     A.U. after    9 cycles
 E2 =    -0.2668363186D-01 EUMP2 =    -0.99437178208203D+00
 CCSD(T)
 CCSD(T)= -0.10085651475D+01

 The electronic state is 2-SGU.
 Alpha  occ. eigenvalues --   -0.19310  -0.17609
 Alpha virt. eigenvalues --    0.58374   0.63223   1.01317   1.01686   1.01686
 Alpha virt. eigenvalues --    1.01940   1.01940   1.05490   2.77854   2.80383
 Alpha virt. eigenvalues --    3.73129   3.73129   3.73129   3.73129   3.73327

  Beta  occ. eigenvalues --    0.02170
  Beta virt. eigenvalues --    0.21012   0.69112   0.72661   1.06440   1.07171
  Beta virt. eigenvalues --    1.07171   1.07763   1.07763   1.11306   2.86348
  Beta virt. eigenvalues --    2.88796   3.76695   3.76695   3.76698   3.76698

 Mulliken charges and spin densities:
               1          2
     1  H   -0.500000   0.500000
     2  H   -0.500000   0.500000
 Sum of Mulliken charges =  -1.00000   1.00000

 Dipole moment (field-independent basis, Debye):
    X=             -0.0000    Y=              0.0000    Z=              0.0000  Tot=              0.0000
 Quadrupole moment (field-independent basis, Debye-Ang):
   XX=             -6.1132   YY=             -6.1132   ZZ=            -19.0580
   XY=              0.0000   XZ=              0.0000   YZ=             -0.0000

 1.0046702\MP4SDQ=-1.0044502\CCSD=-1.0082696\CCSD(T)=-1.0085651\S2=0.82
 Normal termination of Gaussian 16 at Fri Feb  9 18:01:39 2024.
