 Gaussian 16, Revision A.03,
 Gaussian 16:  ES64L-G16RevA.03 25-Dec-2016

 ------------------
 #p CCSD(T)/cc-pVTZ
 ------------------

 -----
 H2_82
 -----
 Symbolic Z-matrix:
 Charge = -1 Multiplicity = 2

                         Standard orientation:
 ---------------------------------------------------------------------
 Center     Atomic      Atomic             Coordinates (Angstroms)
 Number     Number       Type             X           Y           Z
 ---------------------------------------------------------------------
      1          1           0        0.000000    0.000000    1.630000
      2          1           0        0.000000    0.000000   -1.630000
 ---------------------------------------------------------------------

 SCF Done:  E(UHF) = -0.968986399457     A.U. after    9 cycles
 E2 =    -0.2664128662D-01 EUMP2 =    -0.99562768607537D+00
 CCSD(T)
 CCSD(T)= -0.10097611719D+01

 The electronic state is 2-SGU.
 Alpha  occ. eigenvalues --   -0.19137  -0.17152
 Alpha virt. eigenvalues --    0.59008   0.63227   1.01087   1.01910   1.01910
 Alpha virt. eigenvalues --    1.02315   1.02315   1.07020   2.78789   2.80389
 Alpha virt. eigenvalues --    3.73440   3.73440   3.73440   3.73440   3.73659

  Beta  occ. eigenvalues --    0.02006
  Beta virt. eigenvalues --    0.21694   0.69777   0.72639   1.06132   1.07372
  Beta virt. eigenvalues --    1.07372   1.08157   1.08157   1.12836   2.87257
  Beta virt. eigenvalues --    2.88808   3.77004   3.77004   3.77009   3.77009

 Mulliken charges and spin densities:
               1          2
     1  H   -0.500000   0.500000
     2  H   -0.500000   0.500000
 Sum of Mulliken charges =  -1.00000   1.00000

 Dipole moment (field-independent basis, Debye):
    X=             -0.0000    Y=              0.0000    Z=              0.0000  Tot=              0.0000
 Quadrupole moment (field-independent basis, Debye-Ang):
   XX=             -6.1068   YY=             -6.1068   ZZ=            -18.0826
   XY=              0.0000   XZ=              0.0000   YZ=             -0.0000

 =-1.0059059\MP4SDQ=-1.00568\CCSD=-1.0094685\CCSD(T)=-1.0097612\S2=0.82
 Normal termination of Gaussian 16 at Fri Feb  9 18:01:34 2024.
