 Gaussian 16, Revision A.03,
 Gaussian 16:  ES64L-G16RevA.03 25-Dec-2016

 ------------------
 #p CCSD(T)/cc-pVTZ
 ------------------

 -----
 H2_83
 -----
 Symbolic Z-matrix:
 Charge = -1 Multiplicity = 2

                         Standard orientation:
 ---------------------------------------------------------------------
 Center     Atomic      Atomic             Coordinates (Angstroms)
 Number     Number       Type             X           Y           Z
 ---------------------------------------------------------------------
      1          1           0        0.000000    0.000000    1.645000
      2          1           0        0.000000    0.000000   -1.645000
 ---------------------------------------------------------------------

 SCF Done:  E(UHF) = -0.968657702002     A.U. after    9 cycles
 E2 =    -0.2664828783D-01 EUMP2 =    -0.99530598982875D+00
 CCSD(T)
 CCSD(T)= -0.10094560547D+01

 The electronic state is 2-SGU.
 Alpha  occ. eigenvalues --   -0.19181  -0.17271
 Alpha virt. eigenvalues --    0.58840   0.63230   1.01163   1.01855   1.01855
 Alpha virt. eigenvalues --    1.02216   1.02216   1.06607   2.78550   2.80386
 Alpha virt. eigenvalues --    3.73360   3.73360   3.73360   3.73360   3.73573

  Beta  occ. eigenvalues --    0.02049
  Beta virt. eigenvalues --    0.21520   0.69603   0.72648   1.06229   1.07324
  Beta virt. eigenvalues --    1.07324   1.08054   1.08054   1.12424   2.87026
  Beta virt. eigenvalues --    2.88804   3.76925   3.76925   3.76929   3.76929

 Mulliken charges and spin densities:
               1          2
     1  H   -0.500000   0.500000
     2  H   -0.500000   0.500000
 Sum of Mulliken charges =  -1.00000   1.00000

 Dipole moment (field-independent basis, Debye):
    X=             -0.0000    Y=              0.0000    Z=              0.0000  Tot=              0.0000
 Quadrupole moment (field-independent basis, Debye-Ang):
   XX=             -6.1085   YY=             -6.1085   ZZ=            -18.3215
   XY=              0.0000   XZ=              0.0000   YZ=             -0.0000

 =-1.0055908\MP4SDQ=-1.0053648\CCSD=-1.0091627\CCSD(T)=-1.0094561\S2=0.
 Normal termination of Gaussian 16 at Fri Feb  9 18:01:35 2024.
