 Gaussian 16, Revision A.03,
 Gaussian 16:  ES64L-G16RevA.03 25-Dec-2016

 ------------------
 #p CCSD(T)/cc-pVTZ
 ------------------

 -----
 H2_81
 -----
 Symbolic Z-matrix:
 Charge = -1 Multiplicity = 2

                         Standard orientation:
 ---------------------------------------------------------------------
 Center     Atomic      Atomic             Coordinates (Angstroms)
 Number     Number       Type             X           Y           Z
 ---------------------------------------------------------------------
      1          1           0        0.000000    0.000000    1.615000
      2          1           0        0.000000    0.000000   -1.615000
 ---------------------------------------------------------------------

 SCF Done:  E(UHF) = -0.969317941608     A.U. after    9 cycles
 E2 =    -0.2663679572D-01 EUMP2 =    -0.99595473732360D+00
 CCSD(T)
 CCSD(T)= -0.10100705203D+01

 The electronic state is 2-SGU.
 Alpha  occ. eigenvalues --   -0.19093  -0.17029
 Alpha virt. eigenvalues --    0.59182   0.63221   1.00999   1.01964   1.01964
 Alpha virt. eigenvalues --    1.02417   1.02417   1.07455   2.79030   2.80394
 Alpha virt. eigenvalues --    3.73523   3.73523   3.73523   3.73523   3.73746

  Beta  occ. eigenvalues --    0.01963
  Beta virt. eigenvalues --    0.21869   0.69956   0.72628   1.06020   1.07419
  Beta virt. eigenvalues --    1.07419   1.08264   1.08264   1.13270   2.87490
  Beta virt. eigenvalues --    2.88813   3.77086   3.77086   3.77090   3.77090

 Mulliken charges and spin densities:
               1          2
     1  H   -0.500000   0.500000
     2  H   -0.500000   0.500000
 Sum of Mulliken charges =  -1.00000   1.00000

 Dipole moment (field-independent basis, Debye):
    X=             -0.0000    Y=              0.0000    Z=              0.0000  Tot=              0.0000
 Quadrupole moment (field-independent basis, Debye-Ang):
   XX=             -6.1052   YY=             -6.1052   ZZ=            -17.8472
   XY=              0.0000   XZ=              0.0000   YZ=             -0.0000

 0=-1.0062253\MP4SDQ=-1.0060007\CCSD=-1.0097785\CCSD(T)=-1.0100705\S2=0
 Normal termination of Gaussian 16 at Fri Feb  9 18:01:24 2024.
