 Gaussian 16, Revision A.03,
 Gaussian 16:  ES64L-G16RevA.03 25-Dec-2016

 ------------------
 #p CCSD(T)/cc-pVTZ
 ------------------

 -----
 H2_88
 -----
 Symbolic Z-matrix:
 Charge = -1 Multiplicity = 2

                         Standard orientation:
 ---------------------------------------------------------------------
 Center     Atomic      Atomic             Coordinates (Angstroms)
 Number     Number       Type             X           Y           Z
 ---------------------------------------------------------------------
      1          1           0        0.000000    0.000000    1.720000
      2          1           0        0.000000    0.000000   -1.720000
 ---------------------------------------------------------------------

 SCF Done:  E(UHF) = -0.967055173560     A.U. after    9 cycles
 E2 =    -0.2671841672D-01 EUMP2 =    -0.99377359028409D+00
 CCSD(T)
 CCSD(T)= -0.10079907874D+01

 The electronic state is 2-SGU.
 Alpha  occ. eigenvalues --   -0.19393  -0.17819
 Alpha virt. eigenvalues --    0.58094   0.63202   1.01368   1.01572   1.01572
 Alpha virt. eigenvalues --    1.01772   1.01772   1.04840   2.77415   2.80378
 Alpha virt. eigenvalues --    3.72983   3.72983   3.72983   3.72983   3.73171

  Beta  occ. eigenvalues --    0.02247
  Beta virt. eigenvalues --    0.20682   0.68812   0.72654   1.06525   1.07065
  Beta virt. eigenvalues --    1.07065   1.07585   1.07585   1.10653   2.85919
  Beta virt. eigenvalues --    2.88785   3.76549   3.76549   3.76552   3.76552

 Mulliken charges and spin densities:
               1          2
     1  H   -0.500000   0.500000
     2  H   -0.500000   0.500000
 Sum of Mulliken charges =  -1.00000   1.00000

 Dipole moment (field-independent basis, Debye):
    X=             -0.0000    Y=              0.0000    Z=              0.0000  Tot=              0.0000
 Quadrupole moment (field-independent basis, Debye-Ang):
   XX=             -6.1162   YY=             -6.1162   ZZ=            -19.5652
   XY=              0.0000   XZ=              0.0000   YZ=             -0.0000

 0=-1.0040763\MP4SDQ=-1.0038654\CCSD=-1.0076937\CCSD(T)=-1.0079908\S2=0
 Normal termination of Gaussian 16 at Fri Feb  9 18:01:41 2024.
