 Gaussian 16, Revision A.03,
 Gaussian 16:  ES64L-G16RevA.03 25-Dec-2016

 ------------------
 #p CCSD(T)/cc-pVTZ
 ------------------

 -----
 H2_87
 -----
 Symbolic Z-matrix:
 Charge = -1 Multiplicity = 2

                         Standard orientation:
 ---------------------------------------------------------------------
 Center     Atomic      Atomic             Coordinates (Angstroms)
 Number     Number       Type             X           Y           Z
 ---------------------------------------------------------------------
      1          1           0        0.000000    0.000000    1.705000
      2          1           0        0.000000    0.000000   -1.705000
 ---------------------------------------------------------------------

 SCF Done:  E(UHF) = -0.967370342214     A.U. after    9 cycles
 E2 =    -0.2669995106D-01 EUMP2 =    -0.99407029327641D+00
 CCSD(T)
 CCSD(T)= -0.10082760553D+01

 The electronic state is 2-SGU.
 Alpha  occ. eigenvalues --   -0.19352  -0.17716
 Alpha virt. eigenvalues --    0.58231   0.63214   1.01347   1.01629   1.01629
 Alpha virt. eigenvalues --    1.01854   1.01854   1.05156   2.77631   2.80381
 Alpha virt. eigenvalues --    3.73055   3.73055   3.73055   3.73055   3.73248

  Beta  occ. eigenvalues --    0.02209
  Beta virt. eigenvalues --    0.20846   0.68959   0.72659   1.06488   1.07118
  Beta virt. eigenvalues --    1.07118   1.07673   1.07673   1.10970   2.86131
  Beta virt. eigenvalues --    2.88791   3.76621   3.76621   3.76624   3.76624

 Mulliken charges and spin densities:
               1          2
     1  H   -0.500000   0.500000
     2  H   -0.500000   0.500000
 Sum of Mulliken charges =  -1.00000   1.00000

 Dipole moment (field-independent basis, Debye):
    X=             -0.0000    Y=              0.0000    Z=              0.0000  Tot=              0.0000
 Quadrupole moment (field-independent basis, Debye-Ang):
   XX=             -6.1147   YY=             -6.1147   ZZ=            -19.3100
   XY=              0.0000   XZ=              0.0000   YZ=             -0.0000

 =-1.0043713\MP4SDQ=-1.0041554\CCSD=-1.0079798\CCSD(T)=-1.0082761\S2=0.
 Normal termination of Gaussian 16 at Fri Feb  9 18:01:40 2024.
