 Gaussian 16, Revision A.03,
 Gaussian 16:  ES64L-G16RevA.03 25-Dec-2016

 ------------------
 #p CCSD(T)/cc-pVTZ
 ------------------

 -----
 H2_84
 -----
 Symbolic Z-matrix:
 Charge = -1 Multiplicity = 2

                         Standard orientation:
 ---------------------------------------------------------------------
 Center     Atomic      Atomic             Coordinates (Angstroms)
 Number     Number       Type             X           Y           Z
 ---------------------------------------------------------------------
      1          1           0        0.000000    0.000000    1.660000
      2          1           0        0.000000    0.000000   -1.660000
 ---------------------------------------------------------------------

 SCF Done:  E(UHF) = -0.968331792772     A.U. after    9 cycles
 E2 =    -0.2665772734D-01 EUMP2 =    -0.99498952011139D+00
 CCSD(T)
 CCSD(T)= -0.10091550702D+01

 The electronic state is 2-SGU.
 Alpha  occ. eigenvalues --   -0.19224  -0.17387
 Alpha virt. eigenvalues --    0.58679   0.63230   1.01225   1.01799   1.01799
 Alpha virt. eigenvalues --    1.02121   1.02121   1.06215   2.78314   2.80385
 Alpha virt. eigenvalues --    3.73281   3.73281   3.73281   3.73281   3.73489

  Beta  occ. eigenvalues --    0.02090
  Beta virt. eigenvalues --    0.21349   0.69434   0.72655   1.06312   1.07274
  Beta virt. eigenvalues --    1.07274   1.07954   1.07954   1.12032   2.86797
  Beta virt. eigenvalues --    2.88802   3.76847   3.76847   3.76850   3.76850

 Mulliken charges and spin densities:
               1          2
     1  H   -0.500000   0.500000
     2  H   -0.500000   0.500000
 Sum of Mulliken charges =  -1.00000   1.00000

 Dipole moment (field-independent basis, Debye):
    X=             -0.0000    Y=              0.0000    Z=             -0.0000  Tot=              0.0000
 Quadrupole moment (field-independent basis, Debye-Ang):
   XX=             -6.1101   YY=             -6.1101   ZZ=            -18.5637
   XY=              0.0000   XZ=              0.0000   YZ=             -0.0000

 0=-1.0052799\MP4SDQ=-1.0050548\CCSD=-1.008861\CCSD(T)=-1.0091551\S2=0.
 Normal termination of Gaussian 16 at Fri Feb  9 18:01:36 2024.
