 Gaussian 16, Revision A.03,
 Gaussian 16:  ES64L-G16RevA.03 25-Dec-2016

 ------------------
 #p CCSD(T)/cc-pVTZ
 ------------------

 ----
 H2_8
 ----
 Symbolic Z-matrix:
 Charge = -1 Multiplicity = 2

                         Standard orientation:
 ---------------------------------------------------------------------
 Center     Atomic      Atomic             Coordinates (Angstroms)
 Number     Number       Type             X           Y           Z
 ---------------------------------------------------------------------
      1          1           0        0.000000    0.000000    0.520000
      2          1           0        0.000000    0.000000   -0.520000
 ---------------------------------------------------------------------

 SCF Done:  E(UHF) = -0.987360092787     A.U. after   10 cycles
 E2 =    -0.3727756340D-01 EUMP2 =    -0.10246376561826D+01
 CCSD(T)
 CCSD(T)= -0.10346254231D+01

 The electronic state is 2-SGU.
 Alpha  occ. eigenvalues --   -0.23756   0.09637
 Alpha virt. eigenvalues --    0.58784   0.78015   0.97182   0.97182   1.27199
 Alpha virt. eigenvalues --    1.33512   1.33512   1.76800   2.85763   2.95608
 Alpha virt. eigenvalues --    3.52937   3.52937   3.55312   3.55312   3.74607

  Beta  occ. eigenvalues --   -0.16984
  Beta virt. eigenvalues --    0.41890   0.60902   0.86332   0.99138   0.99138
  Beta virt. eigenvalues --    1.34107   1.38592   1.38592   1.80712   2.87489
  Beta virt. eigenvalues --    2.98436   3.53648   3.53648   3.56297   3.56297

 Mulliken charges and spin densities:
               1          2
     1  H   -0.500000   0.500000
     2  H   -0.500000   0.500000
 Sum of Mulliken charges =  -1.00000   1.00000

 Dipole moment (field-independent basis, Debye):
    X=             -0.0000    Y=              0.0000    Z=             -0.0000  Tot=              0.0000
 Quadrupole moment (field-independent basis, Debye-Ang):
   XX=             -5.7483   YY=             -5.7483   ZZ=            -10.8636
   XY=             -0.0000   XZ=              0.0000   YZ=              0.0000

 =-1.0320921\MP4SDQ=-1.0335921\CCSD=-1.0342022\CCSD(T)=-1.0346254\S2=0.
 Normal termination of Gaussian 16 at Fri Feb  9 17:59:34 2024.
