 Gaussian 16, Revision A.03,
 Gaussian 16:  ES64L-G16RevA.03 25-Dec-2016

 ------------------
 #p CCSD(T)/cc-pVTZ
 ------------------

 -----
 H2_91
 -----
 Symbolic Z-matrix:
 Charge = -1 Multiplicity = 2

                         Standard orientation:
 ---------------------------------------------------------------------
 Center     Atomic      Atomic             Coordinates (Angstroms)
 Number     Number       Type             X           Y           Z
 ---------------------------------------------------------------------
      1          1           0        0.000000    0.000000    1.765000
      2          1           0        0.000000    0.000000   -1.765000
 ---------------------------------------------------------------------

 SCF Done:  E(UHF) = -0.966125377977     A.U. after    9 cycles
 E2 =    -0.2678594409D-01 EUMP2 =    -0.99291132206889D+00
 CCSD(T)
 CCSD(T)= -0.10071574097D+01

 The electronic state is 2-SGU.
 Alpha  occ. eigenvalues --   -0.19514  -0.18112
 Alpha virt. eigenvalues --    0.57722   0.63143   1.01384   1.01402   1.01402
 Alpha virt. eigenvalues --    1.01539   1.01539   1.03993   2.76808   2.80357
 Alpha virt. eigenvalues --    3.72777   3.72777   3.72777   3.72777   3.72951

  Beta  occ. eigenvalues --    0.02355
  Beta virt. eigenvalues --    0.20202   0.68404   0.72616   1.06582   1.06903
  Beta virt. eigenvalues --    1.06903   1.07335   1.07335   1.09799   2.85321
  Beta virt. eigenvalues --    2.88752   3.76341   3.76341   3.76343   3.76343

 Mulliken charges and spin densities:
               1          2
     1  H   -0.500000   0.500000
     2  H   -0.500000   0.500000
 Sum of Mulliken charges =  -1.00000   1.00000

 Dipole moment (field-independent basis, Debye):
    X=             -0.0000    Y=             -0.0000    Z=             -0.0000  Tot=              0.0000
 Quadrupole moment (field-independent basis, Debye-Ang):
   XX=             -6.1204   YY=             -6.1204   ZZ=            -20.3494
   XY=              0.0000   XZ=              0.0000   YZ=             -0.0000

 0=-1.0032138\MP4SDQ=-1.0030236\CCSD=-1.0068578\CCSD(T)=-1.0071574\S2=0
 Normal termination of Gaussian 16 at Fri Feb  9 18:01:45 2024.
