 Gaussian 16, Revision A.03,
 Gaussian 16:  ES64L-G16RevA.03 25-Dec-2016

 ------------------
 #p CCSD(T)/cc-pVTZ
 ------------------

 -----
 H2_96
 -----
 Symbolic Z-matrix:
 Charge = -1 Multiplicity = 2

                         Standard orientation:
 ---------------------------------------------------------------------
 Center     Atomic      Atomic             Coordinates (Angstroms)
 Number     Number       Type             X           Y           Z
 ---------------------------------------------------------------------
      1          1           0        0.000000    0.000000    1.840000
      2          1           0        0.000000    0.000000   -1.840000
 ---------------------------------------------------------------------

 SCF Done:  E(UHF) = -0.964628540831     A.U. after    9 cycles
 E2 =    -0.2693431937D-01 EUMP2 =    -0.99156286020182D+00
 CCSD(T)
 CCSD(T)= -0.10058411890D+01

 The electronic state is 2-SGU.
 Alpha  occ. eigenvalues --   -0.19700  -0.18547
 Alpha virt. eigenvalues --    0.57223   0.62964   1.01127   1.01127   1.01198
 Alpha virt. eigenvalues --    1.01198   1.01291   1.02875   2.75957   2.80259
 Alpha virt. eigenvalues --    3.72466   3.72466   3.72466   3.72466   3.72618

  Beta  occ. eigenvalues --    0.02520
  Beta virt. eigenvalues --    0.19438   0.67835   0.72471   1.06542   1.06632
  Beta virt. eigenvalues --    1.06632   1.06963   1.06963   1.08663   2.84469
  Beta virt. eigenvalues --    2.88630   3.76022   3.76022   3.76024   3.76024

 Mulliken charges and spin densities:
               1          2
     1  H   -0.500000   0.500000
     2  H   -0.500000   0.500000
 Sum of Mulliken charges =  -1.00000   1.00000

 Dipole moment (field-independent basis, Debye):
    X=             -0.0000    Y=             -0.0000    Z=             -0.0000  Tot=              0.0000
 Quadrupole moment (field-independent basis, Debye-Ang):
   XX=             -6.1263   YY=             -6.1263   ZZ=            -21.7153
   XY=              0.0000   XZ=              0.0000   YZ=             -0.0000

 0=-1.0018496\MP4SDQ=-1.0017105\CCSD=-1.0055368\CCSD(T)=-1.0058412\S2=0
 Normal termination of Gaussian 16 at Fri Feb  9 18:01:57 2024.
