 Gaussian 16, Revision A.03,
 Gaussian 16:  ES64L-G16RevA.03 25-Dec-2016

 ------------------
 #p CCSD(T)/cc-pVTZ
 ------------------

 -----
 H2_92
 -----
 Symbolic Z-matrix:
 Charge = -1 Multiplicity = 2

                         Standard orientation:
 ---------------------------------------------------------------------
 Center     Atomic      Atomic             Coordinates (Angstroms)
 Number     Number       Type             X           Y           Z
 ---------------------------------------------------------------------
      1          1           0        0.000000    0.000000    1.780000
      2          1           0        0.000000    0.000000   -1.780000
 ---------------------------------------------------------------------

 SCF Done:  E(UHF) = -0.965820682140     A.U. after    9 cycles
 E2 =    -0.2681224339D-01 EUMP2 =    -0.99263292552972D+00
 CCSD(T)
 CCSD(T)= -0.10068869576D+01

 The electronic state is 2-SGU.
 Alpha  occ. eigenvalues --   -0.19552  -0.18205
 Alpha virt. eigenvalues --    0.57610   0.63115   1.01346   1.01346   1.01375
 Alpha virt. eigenvalues --    1.01467   1.01467   1.03742   2.76621   2.80344
 Alpha virt. eigenvalues --    3.72712   3.72712   3.72712   3.72712   3.72881

  Beta  occ. eigenvalues --    0.02389
  Beta virt. eigenvalues --    0.20046   0.68279   0.72596   1.06585   1.06848
  Beta virt. eigenvalues --    1.06848   1.07257   1.07257   1.09545   2.85135
  Beta virt. eigenvalues --    2.88735   3.76274   3.76274   3.76277   3.76277

 Mulliken charges and spin densities:
               1          2
     1  H   -0.500000   0.500000
     2  H   -0.500000   0.500000
 Sum of Mulliken charges =  -1.00000   1.00000

 Dipole moment (field-independent basis, Debye):
    X=             -0.0000    Y=              0.0000    Z=             -0.0000  Tot=              0.0000
 Quadrupole moment (field-independent basis, Debye-Ang):
   XX=             -6.1217   YY=             -6.1217   ZZ=            -20.6168
   XY=              0.0000   XZ=              0.0000   YZ=             -0.0000

 0=-1.0029337\MP4SDQ=-1.0027522\CCSD=-1.0065864\CCSD(T)=-1.006887\S2=0.
 Normal termination of Gaussian 16 at Fri Feb  9 18:01:47 2024.
