 Gaussian 16, Revision A.03,
 Gaussian 16:  ES64L-G16RevA.03 25-Dec-2016

 ------------------
 #p CCSD(T)/cc-pVTZ
 ------------------

 -----
 H2_99
 -----
 Symbolic Z-matrix:
 Charge = -1 Multiplicity = 2

                         Standard orientation:
 ---------------------------------------------------------------------
 Center     Atomic      Atomic             Coordinates (Angstroms)
 Number     Number       Type             X           Y           Z
 ---------------------------------------------------------------------
      1          1           0        0.000000    0.000000    1.885000
      2          1           0        0.000000    0.000000   -1.885000
 ---------------------------------------------------------------------

 SCF Done:  E(UHF) = -0.963763429651     A.U. after    9 cycles
 E2 =    -0.2704137280D-01 EUMP2 =    -0.99080480245501D+00
 CCSD(T)
 CCSD(T)= -0.10050944637D+01

 The electronic state is 2-SGU.
 Alpha  occ. eigenvalues --   -0.19804  -0.18779
 Alpha virt. eigenvalues --    0.56993   0.62808   1.00969   1.00969   1.01017
 Alpha virt. eigenvalues --    1.01017   1.01190   1.02349   2.75547   2.80156
 Alpha virt. eigenvalues --    3.72298   3.72298   3.72298   3.72298   3.72437

  Beta  occ. eigenvalues --    0.02612
  Beta virt. eigenvalues --    0.19002   0.67557   0.72332   1.06465   1.06474
  Beta virt. eigenvalues --    1.06474   1.06763   1.06763   1.08124   2.84053
  Beta virt. eigenvalues --    2.88509   3.75847   3.75847   3.75849   3.75849

 Mulliken charges and spin densities:
               1          2
     1  H   -0.500000   0.500000
     2  H   -0.500000   0.500000
 Sum of Mulliken charges =  -1.00000   1.00000

 Dipole moment (field-independent basis, Debye):
    X=             -0.0000    Y=             -0.0000    Z=             -0.0000  Tot=              0.0000
 Quadrupole moment (field-independent basis, Debye-Ang):
   XX=             -6.1290   YY=             -6.1290   ZZ=            -22.5680
   XY=              0.0000   XZ=              0.0000   YZ=             -0.0000

 0=-1.0010744\MP4SDQ=-1.0009742\CCSD=-1.004787\CCSD(T)=-1.0050945\S2=0.
 Normal termination of Gaussian 16 at Fri Feb  9 18:02:07 2024.
