 Gaussian 16, Revision A.03,
 Gaussian 16:  ES64L-G16RevA.03 25-Dec-2016

 ------------------
 #p CCSD(T)/cc-pVTZ
 ------------------

 -----
 H2_98
 -----
 Symbolic Z-matrix:
 Charge = -1 Multiplicity = 2

                         Standard orientation:
 ---------------------------------------------------------------------
 Center     Atomic      Atomic             Coordinates (Angstroms)
 Number     Number       Type             X           Y           Z
 ---------------------------------------------------------------------
      1          1           0        0.000000    0.000000    1.870000
      2          1           0        0.000000    0.000000   -1.870000
 ---------------------------------------------------------------------

 SCF Done:  E(UHF) = -0.964048944506     A.U. after    9 cycles
 E2 =    -0.2700437325D-01 EUMP2 =    -0.99105331775839D+00
 CCSD(T)
 CCSD(T)= -0.10053397909D+01

 The electronic state is 2-SGU.
 Alpha  occ. eigenvalues --   -0.19770  -0.18704
 Alpha virt. eigenvalues --    0.57064   0.62864   1.01021   1.01021   1.01076
 Alpha virt. eigenvalues --    1.01076   1.01227   1.02514   2.75675   2.80194
 Alpha virt. eigenvalues --    3.72352   3.72352   3.72353   3.72353   3.72496

  Beta  occ. eigenvalues --    0.02582
  Beta virt. eigenvalues --    0.19146   0.67644   0.72382   1.06494   1.06526
  Beta virt. eigenvalues --    1.06526   1.06828   1.06828   1.08293   2.84184
  Beta virt. eigenvalues --    2.88553   3.75904   3.75904   3.75906   3.75906

 Mulliken charges and spin densities:
               1          2
     1  H   -0.500000   0.500000
     2  H   -0.500000   0.500000
 Sum of Mulliken charges =  -1.00000   1.00000

 Dipole moment (field-independent basis, Debye):
    X=             -0.0000    Y=              0.0000    Z=             -0.0000  Tot=              0.0000
 Quadrupole moment (field-independent basis, Debye-Ang):
   XX=             -6.1282   YY=             -6.1282   ZZ=            -22.2811
   XY=              0.0000   XZ=              0.0000   YZ=             -0.0000

 =-1.0013292\MP4SDQ=-1.0012154\CCSD=-1.0050334\CCSD(T)=-1.0053398\S2=0.
 Normal termination of Gaussian 16 at Fri Feb  9 18:02:04 2024.
