 Gaussian 16, Revision A.03,
 Gaussian 16:  ES64L-G16RevA.03 25-Dec-2016

 ------------------
 #p CCSD(T)/cc-pVTZ
 ------------------

 -----
 H2_97
 -----
 Symbolic Z-matrix:
 Charge = -1 Multiplicity = 2

                         Standard orientation:
 ---------------------------------------------------------------------
 Center     Atomic      Atomic             Coordinates (Angstroms)
 Number     Number       Type             X           Y           Z
 ---------------------------------------------------------------------
      1          1           0        0.000000    0.000000    1.855000
      2          1           0        0.000000    0.000000   -1.855000
 ---------------------------------------------------------------------

 SCF Done:  E(UHF) = -0.964337332860     A.U. after    9 cycles
 E2 =    -0.2696866182D-01 EUMP2 =    -0.99130599467978D+00
 CCSD(T)
 CCSD(T)= -0.10055887012D+01

 The electronic state is 2-SGU.
 Alpha  occ. eigenvalues --   -0.19736  -0.18627
 Alpha virt. eigenvalues --    0.57141   0.62916   1.01073   1.01073   1.01136
 Alpha virt. eigenvalues --    1.01136   1.01261   1.02689   2.75812   2.80229
 Alpha virt. eigenvalues --    3.72409   3.72409   3.72409   3.72409   3.72556

  Beta  occ. eigenvalues --    0.02551
  Beta virt. eigenvalues --    0.19291   0.67737   0.72429   1.06520   1.06579
  Beta virt. eigenvalues --    1.06579   1.06895   1.06895   1.08472   2.84323
  Beta virt. eigenvalues --    2.88594   3.75962   3.75962   3.75964   3.75964

 Mulliken charges and spin densities:
               1          2
     1  H   -0.500000   0.500000
     2  H   -0.500000   0.500000
 Sum of Mulliken charges =  -1.00000   1.00000

 Dipole moment (field-independent basis, Debye):
    X=             -0.0000    Y=              0.0000    Z=              0.0000  Tot=              0.0000
 Quadrupole moment (field-independent basis, Debye-Ang):
   XX=             -6.1273   YY=             -6.1273   ZZ=            -21.9969
   XY=              0.0000   XZ=              0.0000   YZ=             -0.0000

 -1.0015876\MP4SDQ=-1.0014609\CCSD=-1.0052833\CCSD(T)=-1.0055887\S2=0.8
 Normal termination of Gaussian 16 at Fri Feb  9 18:02:00 2024.
