 Gaussian 16, Revision A.03,
 Gaussian 16:  ES64L-G16RevA.03 25-Dec-2016

 ------------------
 #p CCSD(T)/cc-pVTZ
 ------------------

 ----
 H2_9
 ----
 Symbolic Z-matrix:
 Charge = -1 Multiplicity = 2

                         Standard orientation:
 ---------------------------------------------------------------------
 Center     Atomic      Atomic             Coordinates (Angstroms)
 Number     Number       Type             X           Y           Z
 ---------------------------------------------------------------------
      1          1           0        0.000000    0.000000    0.535000
      2          1           0        0.000000    0.000000   -0.535000
 ---------------------------------------------------------------------

 SCF Done:  E(UHF) = -0.987647856338     A.U. after   10 cycles
 E2 =    -0.3716834205D-01 EUMP2 =    -0.10248161983849D+01
 CCSD(T)
 CCSD(T)= -0.10349019242D+01

 The electronic state is 2-SGU.
 Alpha  occ. eigenvalues --   -0.23313   0.08978
 Alpha virt. eigenvalues --    0.59183   0.77030   0.97160   0.97160   1.26085
 Alpha virt. eigenvalues --    1.32828   1.32828   1.76274   2.86906   2.98186
 Alpha virt. eigenvalues --    3.51202   3.51202   3.56667   3.56667   3.71076

  Beta  occ. eigenvalues --   -0.16060
  Beta virt. eigenvalues --    0.41513   0.61324   0.85577   0.99183   0.99183
  Beta virt. eigenvalues --    1.33063   1.37974   1.37974   1.80269   2.88904
  Beta virt. eigenvalues --    3.01190   3.52048   3.52048   3.57753   3.57753

 Mulliken charges and spin densities:
               1          2
     1  H   -0.500000   0.500000
     2  H   -0.500000   0.500000
 Sum of Mulliken charges =  -1.00000   1.00000

 Dipole moment (field-independent basis, Debye):
    X=             -0.0000    Y=             -0.0000    Z=              0.0000  Tot=              0.0000
 Quadrupole moment (field-independent basis, Debye-Ang):
   XX=             -5.7596   YY=             -5.7596   ZZ=            -10.7872
   XY=             -0.0000   XZ=              0.0000   YZ=              0.0000

 =-1.0323091\MP4SDQ=-1.0338513\CCSD=-1.0344778\CCSD(T)=-1.0349019\S2=0.
 Normal termination of Gaussian 16 at Fri Feb  9 17:59:36 2024.
