 Gaussian 16, Revision A.03,
 Gaussian 16:  ES64L-G16RevA.03 25-Dec-2016

 ------------------
 #p CCSD(T)/cc-pVTZ
 ------------------

 -----
 H2_93
 -----
 Symbolic Z-matrix:
 Charge = -1 Multiplicity = 2

                         Standard orientation:
 ---------------------------------------------------------------------
 Center     Atomic      Atomic             Coordinates (Angstroms)
 Number     Number       Type             X           Y           Z
 ---------------------------------------------------------------------
      1          1           0        0.000000    0.000000    1.795000
      2          1           0        0.000000    0.000000   -1.795000
 ---------------------------------------------------------------------

 SCF Done:  E(UHF) = -0.965518623878     A.U. after    9 cycles
 E2 =    -0.2684030918D-01 EUMP2 =    -0.99235893306268D+00
 CCSD(T)
 CCSD(T)= -0.10066201262D+01

 The electronic state is 2-SGU.
 Alpha  occ. eigenvalues --   -0.19590  -0.18294
 Alpha virt. eigenvalues --    0.57504   0.63084   1.01290   1.01290   1.01361
 Alpha virt. eigenvalues --    1.01397   1.01397   1.03506   2.76443   2.80328
 Alpha virt. eigenvalues --    3.72648   3.72648   3.72648   3.72648   3.72813

  Beta  occ. eigenvalues --    0.02423
  Beta virt. eigenvalues --    0.19891   0.68160   0.72571   1.06583   1.06794
  Beta virt. eigenvalues --    1.06794   1.07181   1.07181   1.09305   2.84957
  Beta virt. eigenvalues --    2.88715   3.76209   3.76209   3.76211   3.76211

 Mulliken charges and spin densities:
               1          2
     1  H   -0.500000   0.500000
     2  H   -0.500000   0.500000
 Sum of Mulliken charges =  -1.00000   1.00000

 Dipole moment (field-independent basis, Debye):
    X=             -0.0000    Y=             -0.0000    Z=             -0.0000  Tot=              0.0000
 Quadrupole moment (field-independent basis, Debye-Ang):
   XX=             -6.1230   YY=             -6.1230   ZZ=            -20.8872
   XY=              0.0000   XZ=              0.0000   YZ=             -0.0000

 -1.0026572\MP4SDQ=-1.0024852\CCSD=-1.0063186\CCSD(T)=-1.0066201\S2=0.8
 Normal termination of Gaussian 16 at Fri Feb  9 18:01:49 2024.
