 Gaussian 16, Revision A.03,
 Gaussian 16:  ES64L-G16RevA.03 25-Dec-2016

 ------------------
 #p CCSD(T)/cc-pVTZ
 ------------------

 -----
 H2_95
 -----
 Symbolic Z-matrix:
 Charge = -1 Multiplicity = 2

                         Standard orientation:
 ---------------------------------------------------------------------
 Center     Atomic      Atomic             Coordinates (Angstroms)
 Number     Number       Type             X           Y           Z
 ---------------------------------------------------------------------
      1          1           0        0.000000    0.000000    1.825000
      2          1           0        0.000000    0.000000   -1.825000
 ---------------------------------------------------------------------

 SCF Done:  E(UHF) = -0.964922519673     A.U. after    9 cycles
 E2 =    -0.2690142646D-01 EUMP2 =    -0.99182394612892D+00
 CCSD(T)
 CCSD(T)= -0.10060972528D+01

 The electronic state is 2-SGU.
 Alpha  occ. eigenvalues --   -0.19665  -0.18465
 Alpha virt. eigenvalues --    0.57311   0.63008   1.01180   1.01180   1.01262
 Alpha virt. eigenvalues --    1.01262   1.01319   1.03073   2.76110   2.80286
 Alpha virt. eigenvalues --    3.72525   3.72525   3.72525   3.72525   3.72681

  Beta  occ. eigenvalues --    0.02489
  Beta virt. eigenvalues --    0.19587   0.67938   0.72508   1.06560   1.06686
  Beta virt. eigenvalues --    1.06686   1.07034   1.07034   1.08864   2.84624
  Beta virt. eigenvalues --    2.88662   3.76083   3.76083   3.76085   3.76085

 Mulliken charges and spin densities:
               1          2
     1  H   -0.500000   0.500000
     2  H   -0.500000   0.500000
 Sum of Mulliken charges =  -1.00000   1.00000

 Dipole moment (field-independent basis, Debye):
    X=             -0.0000    Y=             -0.0000    Z=             -0.0000  Tot=              0.0000
 Quadrupole moment (field-independent basis, Debye-Ang):
   XX=             -6.1253   YY=             -6.1253   ZZ=            -21.4365
   XY=              0.0000   XZ=              0.0000   YZ=             -0.0000

 0=-1.0021152\MP4SDQ=-1.0019644\CCSD=-1.0057938\CCSD(T)=-1.0060973\S2=0
 Normal termination of Gaussian 16 at Fri Feb  9 18:01:54 2024.
