 Gaussian 16, Revision A.03,
 Gaussian 16:  ES64L-G16RevA.03 25-Dec-2016

 ------------------
 #p CCSD(T)/cc-pVTZ
 ------------------

 -----
 H2_94
 -----
 Symbolic Z-matrix:
 Charge = -1 Multiplicity = 2

                         Standard orientation:
 ---------------------------------------------------------------------
 Center     Atomic      Atomic             Coordinates (Angstroms)
 Number     Number       Type             X           Y           Z
 ---------------------------------------------------------------------
      1          1           0        0.000000    0.000000    1.810000
      2          1           0        0.000000    0.000000   -1.810000
 ---------------------------------------------------------------------

 SCF Done:  E(UHF) = -0.965219226316     A.U. after    9 cycles
 E2 =    -0.2687006320D-01 EUMP2 =    -0.99208928951304D+00
 CCSD(T)
 CCSD(T)= -0.10063568959D+01

 The electronic state is 2-SGU.
 Alpha  occ. eigenvalues --   -0.19628  -0.18381
 Alpha virt. eigenvalues --    0.57405   0.63048   1.01235   1.01235   1.01328
 Alpha virt. eigenvalues --    1.01328   1.01342   1.03283   2.76272   2.80309
 Alpha virt. eigenvalues --    3.72586   3.72586   3.72586   3.72586   3.72746

  Beta  occ. eigenvalues --    0.02456
  Beta virt. eigenvalues --    0.19738   0.68046   0.72542   1.06574   1.06740
  Beta virt. eigenvalues --    1.06740   1.07106   1.07106   1.09078   2.84787
  Beta virt. eigenvalues --    2.88690   3.76145   3.76145   3.76148   3.76148

 Mulliken charges and spin densities:
               1          2
     1  H   -0.500000   0.500000
     2  H   -0.500000   0.500000
 Sum of Mulliken charges =  -1.00000   1.00000

 Dipole moment (field-independent basis, Debye):
    X=             -0.0000    Y=              0.0000    Z=              0.0000  Tot=              0.0000
 Quadrupole moment (field-independent basis, Debye-Ang):
   XX=             -6.1241   YY=             -6.1241   ZZ=            -21.1604
   XY=              0.0000   XZ=              0.0000   YZ=             -0.0000

 0=-1.0023844\MP4SDQ=-1.0022226\CCSD=-1.0060545\CCSD(T)=-1.0063569\S2=0
 Normal termination of Gaussian 16 at Fri Feb  9 18:01:51 2024.
