 Gaussian 16, Revision A.03,
 Gaussian 16:  ES64L-G16RevA.03 25-Dec-2016

 ------------------
 #p CCSD(T)/cc-pVTZ
 ------------------

 -----
 H2_90
 -----
 Symbolic Z-matrix:
 Charge = -1 Multiplicity = 2

                         Standard orientation:
 ---------------------------------------------------------------------
 Center     Atomic      Atomic             Coordinates (Angstroms)
 Number     Number       Type             X           Y           Z
 ---------------------------------------------------------------------
      1          1           0        0.000000    0.000000    1.750000
      2          1           0        0.000000    0.000000   -1.750000
 ---------------------------------------------------------------------

 SCF Done:  E(UHF) = -0.966432695729     A.U. after    9 cycles
 E2 =    -0.2676148883D-01 EUMP2 =    -0.99319418456419D+00
 CCSD(T)
 CCSD(T)= -0.10074315088D+01

 The electronic state is 2-SGU.
 Alpha  occ. eigenvalues --   -0.19474  -0.18017
 Alpha virt. eigenvalues --    0.57840   0.63167   1.01386   1.01458   1.01458
 Alpha virt. eigenvalues --    1.01614   1.01614   1.04260   2.77003   2.80367
 Alpha virt. eigenvalues --    3.72844   3.72844   3.72844   3.72844   3.73023

  Beta  occ. eigenvalues --    0.02320
  Beta virt. eigenvalues --    0.20360   0.68535   0.72633   1.06571   1.06957
  Beta virt. eigenvalues --    1.06957   1.07416   1.07416   1.10068   2.85513
  Beta virt. eigenvalues --    2.88766   3.76409   3.76409   3.76411   3.76411

 Mulliken charges and spin densities:
               1          2
     1  H   -0.500000   0.500000
     2  H   -0.500000   0.500000
 Sum of Mulliken charges =  -1.00000   1.00000

 Dipole moment (field-independent basis, Debye):
    X=             -0.0000    Y=             -0.0000    Z=             -0.0000  Tot=              0.0000
 Quadrupole moment (field-independent basis, Debye-Ang):
   XX=             -6.1191   YY=             -6.1191   ZZ=            -20.0849
   XY=              0.0000   XZ=              0.0000   YZ=             -0.0000

 =-1.0034976\MP4SDQ=-1.0032996\CCSD=-1.0071327\CCSD(T)=-1.0074315\S2=0.
 Normal termination of Gaussian 16 at Fri Feb  9 18:01:44 2024.
