 Gaussian 16, Revision A.03,
 Gaussian 16:  ES64L-G16RevA.03 25-Dec-2016

 --------------------
 #p ROCCSD(T)/cc-pVTZ
 --------------------

 ---
 CO2
 ---
 Symbolic Z-matrix:
 Charge = -1 Multiplicity = 2

                         Standard orientation:
 ---------------------------------------------------------------------
 Center     Atomic      Atomic             Coordinates (Angstroms)
 Number     Number       Type             X           Y           Z
 ---------------------------------------------------------------------
      1          8           0        0.000000    0.000000    1.163000
      2          6           0        0.000000    0.000000    0.000000
      3          8           0        0.000000    0.000000   -1.163000
 ---------------------------------------------------------------------

 SCF Done:  E(ROHF) =  -187.533356357     A.U. after   12 cycles
 E2 =    -0.6047680453D+00 EUMP2 =    -0.18813812440223D+03
 CCSD(T)
 CCSD(T)= -0.18816220613D+03

 Unable to determine electronic state:  an orbital has unidentified symmetry.
 Alpha  occ. eigenvalues --  -20.27816 -20.27813 -11.02498  -1.17689  -1.12081
 Alpha  occ. eigenvalues --   -0.47716  -0.41971  -0.40319  -0.36493  -0.27486
 Alpha  occ. eigenvalues --   -0.20609   0.13636
 Alpha virt. eigenvalues --    0.42488   0.51271   0.57513   0.64353   0.69070
 Alpha virt. eigenvalues --    0.85323   0.92382   0.98241   0.98538   0.99520
 Alpha virt. eigenvalues --    1.06185   1.06279   1.20936   1.22857   1.51832

 Mulliken charges and spin densities:
               1          2
     1  O   -0.535915   0.113633
     2  C    0.071830   0.772733
     3  O   -0.535915   0.113633
 Sum of Mulliken charges =  -1.00000   1.00000

 Dipole moment (field-independent basis, Debye):
    X=             -0.0000    Y=              0.0000    Z=             -0.0000  Tot=              0.0000
 Quadrupole moment (field-independent basis, Debye-Ang):
   XX=            -18.5988   YY=            -16.8361   ZZ=            -27.1174
   XY=              0.0000   XZ=              0.0000   YZ=             -0.0000

 3899\CCSD=-188.1370008\CCSD(T)=-188.1622061\RMSD=1.666e-09\PG=D*H [O(C
 Normal termination of Gaussian 16 at Fri Feb 16 18:55:51 2024.
