 Gaussian 16, Revision A.03,
 Gaussian 16:  ES64L-G16RevA.03 25-Dec-2016

 -----------------------------------------------
 #p ROCCSD(T,MaxCyc=200)/cc-pVTZ SCF(MaxCyc=200)
 -----------------------------------------------

 ---------
 N2_N2_171
 ---------
 Symbolic Z-matrix:
 Charge = -1 Multiplicity = 2

                         Standard orientation:
 ---------------------------------------------------------------------
 Center     Atomic      Atomic             Coordinates (Angstroms)
 Number     Number       Type             X           Y           Z
 ---------------------------------------------------------------------
      1          7           0        0.000000    0.000000    2.730000
      2          7           0        0.000000    0.000000    1.640000
      3          7           0        0.000000    0.000000   -1.640000
      4          7           0        0.000000    0.000000   -2.730000
 ---------------------------------------------------------------------

 SCF Done:  E(ROHF) =  -217.824577487     A.U. after   11 cycles
 E2 =    -0.7688742769D+00 EUMP2 =    -0.21859345176359D+03
 CCSD(T)
 CCSD(T)= -0.21862545476D+03

 Unable to determine electronic state:  an orbital has unidentified symmetry.
 Alpha  occ. eigenvalues --  -15.40778 -15.40777 -15.40049 -15.40049  -1.22180
 Alpha  occ. eigenvalues --   -1.22148  -0.54789  -0.53707  -0.41055  -0.40510
 Alpha  occ. eigenvalues --   -0.39419  -0.37846  -0.36692  -0.36572   0.12696
 Alpha virt. eigenvalues --    0.26813   0.38837   0.40637   0.61755   0.64728
 Alpha virt. eigenvalues --    0.72307   0.75753   0.76082   0.78122   0.78434
 Alpha virt. eigenvalues --    0.89006   0.89538   0.89662   0.92191   0.97390

 Mulliken charges and spin densities:
               1          2
     1  N   -0.248432   0.237548
     2  N   -0.251568   0.262452
     3  N   -0.251568   0.262452
     4  N   -0.248432   0.237548
 Sum of Mulliken charges =  -1.00000   1.00000

 Dipole moment (field-independent basis, Debye):
    X=             -0.0000    Y=             -0.0000    Z=              0.0000  Tot=              0.0000
 Quadrupole moment (field-independent basis, Debye-Ang):
   XX=            -22.5177   YY=            -24.3826   ZZ=            -54.0688
   XY=              0.0000   XZ=              0.0000   YZ=             -0.0000

 775\PMP2-0=-218.5934518\MP4SDQ=-218.5906313\CCSD=-218.5871533\CCSD(T)=
 Normal termination of Gaussian 16 at Tue Feb 13 16:48:59 2024.
