 Gaussian 16, Revision A.03,
 Gaussian 16:  ES64L-G16RevA.03 25-Dec-2016

 -----------------------------------------------
 #p ROCCSD(T,MaxCyc=200)/cc-pVTZ SCF(MaxCyc=200)
 -----------------------------------------------

 ---------
 N2_N2_120
 ---------
 Symbolic Z-matrix:
 Charge = -1 Multiplicity = 2

                         Standard orientation:
 ---------------------------------------------------------------------
 Center     Atomic      Atomic             Coordinates (Angstroms)
 Number     Number       Type             X           Y           Z
 ---------------------------------------------------------------------
      1          7           0        0.000000    0.000000    2.390000
      2          7           0        0.000000    0.000000    1.300000
      3          7           0        0.000000    0.000000   -1.300000
      4          7           0        0.000000    0.000000   -2.390000
 ---------------------------------------------------------------------

 SCF Done:  E(ROHF) =  -217.825703323     A.U. after   12 cycles
 E2 =    -0.7682727892D+00 EUMP2 =    -0.21859397611212D+03
 CCSD(T)
 CCSD(T)= -0.21862695748D+03

 Unable to determine electronic state:  an orbital has unidentified symmetry.
 Alpha  occ. eigenvalues --  -15.39606 -15.39605 -15.38656 -15.38655  -1.21073
 Alpha  occ. eigenvalues --   -1.20923  -0.55121  -0.51403  -0.40110  -0.39681
 Alpha  occ. eigenvalues --   -0.38925  -0.35729  -0.35215  -0.34472   0.11630
 Alpha virt. eigenvalues --    0.30711   0.38872   0.43049   0.63673   0.66264
 Alpha virt. eigenvalues --    0.75706   0.76049   0.80065   0.80587   0.83383
 Alpha virt. eigenvalues --    0.90023   0.90451   0.90452   0.93064   1.03135

 Mulliken charges and spin densities:
               1          2
     1  N   -0.258146   0.229258
     2  N   -0.241854   0.270742
     3  N   -0.241854   0.270742
     4  N   -0.258146   0.229258
 Sum of Mulliken charges =  -1.00000   1.00000

 Dipole moment (field-independent basis, Debye):
    X=             -0.0000    Y=             -0.0000    Z=              0.0000  Tot=              0.0000
 Quadrupole moment (field-independent basis, Debye-Ang):
   XX=            -22.5547   YY=            -24.4953   ZZ=            -47.8055
   XY=              0.0000   XZ=              0.0000   YZ=             -0.0000

 033\PMP2-0=-218.5939761\MP4SDQ=-218.5922986\CCSD=-218.5886369\CCSD(T)=
 Normal termination of Gaussian 16 at Tue Feb 13 15:31:20 2024.
