 Gaussian 16, Revision A.03,
 Gaussian 16:  ES64L-G16RevA.03 25-Dec-2016

 -----------------------------------------------
 #p ROCCSD(T,MaxCyc=200)/cc-pVTZ SCF(MaxCyc=200)
 -----------------------------------------------

 ---------
 N2_N2_239
 ---------
 Symbolic Z-matrix:
 Charge = -1 Multiplicity = 2

                         Standard orientation:
 ---------------------------------------------------------------------
 Center     Atomic      Atomic             Coordinates (Angstroms)
 Number     Number       Type             X           Y           Z
 ---------------------------------------------------------------------
      1          7           0       -0.817500   -2.352500    0.000000
      2          7           0        0.272500   -2.352500    0.000000
      3          7           0        0.272500    1.807500    0.000000
      4          7           0        0.272500    2.897500    0.000000
 ---------------------------------------------------------------------

 SCF Done:  E(ROHF) =  -217.822984588     A.U. after   16 cycles
 E2 =    -0.7693786695D+00 EUMP2 =    -0.21859236325792D+03
 CCSD(T)
 CCSD(T)= -0.21862346894D+03

 The electronic state is 2-A'.
 Alpha  occ. eigenvalues --  -15.41711 -15.41140 -15.40920 -15.40574  -1.23130
 Alpha  occ. eigenvalues --   -1.22434  -0.55253  -0.54816  -0.41729  -0.41222
 Alpha  occ. eigenvalues --   -0.39724  -0.39209  -0.37595  -0.36958   0.12946
 Alpha virt. eigenvalues --    0.24936   0.38769   0.39218   0.59432   0.61174
 Alpha virt. eigenvalues --    0.72359   0.75848   0.76281   0.76352   0.77241
 Alpha virt. eigenvalues --    0.82243   0.88913   0.89808   0.92470   0.94119

 Mulliken charges and spin densities:
               1          2
     1  N   -0.261007   0.253551
     2  N   -0.248199   0.256123
     3  N   -0.232824   0.253517
     4  N   -0.257970   0.236809
 Sum of Mulliken charges =  -1.00000   1.00000

 Dipole moment (field-independent basis, Debye):
    X=              0.0406    Y=              0.0933    Z=              0.0000  Tot=              0.1017
 Quadrupole moment (field-independent basis, Debye-Ang):
   XX=            -26.9365   YY=            -54.5527   ZZ=            -22.4915
   XY=             -3.2700   XZ=              0.0000   YZ=              0.0000

 974\CCSD(T)=-218.6234689\RMSD=2.083e-09\PG=CS [SG(N4)]\\@
 Normal termination of Gaussian 16 at Tue Feb 13 18:35:52 2024.
