 Gaussian 16, Revision A.03,
 Gaussian 16:  ES64L-G16RevA.03 25-Dec-2016

 -----------------------------------------------
 #p ROCCSD(T,MaxCyc=200)/cc-pVTZ SCF(MaxCyc=200)
 -----------------------------------------------

 ---------
 N2_N2_184
 ---------
 Symbolic Z-matrix:
 Charge = -1 Multiplicity = 2

                         Standard orientation:
 ---------------------------------------------------------------------
 Center     Atomic      Atomic             Coordinates (Angstroms)
 Number     Number       Type             X           Y           Z
 ---------------------------------------------------------------------
      1          7           0        0.578060   -2.570560    0.000000
      2          7           0       -0.192687   -1.799813    0.000000
      3          7           0       -0.192687    1.640186    0.000000
      4          7           0       -0.192687    2.730187    0.000000
 ---------------------------------------------------------------------

 SCF Done:  E(ROHF) =  -217.823934946     A.U. after   16 cycles
 E2 =    -0.7692689216D+00 EUMP2 =    -0.21859320386740D+03
 CCSD(T)
 CCSD(T)= -0.21862497755D+03

 The electronic state is 2-A".
 Alpha  occ. eigenvalues --  -15.41275 -15.40605 -15.40543 -15.39870  -1.22648
 Alpha  occ. eigenvalues --   -1.21944  -0.54913  -0.54000  -0.41290  -0.40645
 Alpha  occ. eigenvalues --   -0.39461  -0.38367  -0.37108  -0.36327   0.12808
 Alpha virt. eigenvalues --    0.26168   0.39103   0.39992   0.59828   0.64622
 Alpha virt. eigenvalues --    0.72361   0.75483   0.75804   0.77894   0.78552
 Alpha virt. eigenvalues --    0.85381   0.89269   0.89947   0.91749   0.95888

 Mulliken charges and spin densities:
               1          2
     1  N   -0.266058   0.246283
     2  N   -0.243560   0.263312
     3  N   -0.242694   0.255738
     4  N   -0.247689   0.234666
 Sum of Mulliken charges =  -1.00000   1.00000

 Dipole moment (field-independent basis, Debye):
    X=             -0.1097    Y=              0.1512    Z=              0.0000  Tot=              0.1868
 Quadrupole moment (field-independent basis, Debye-Ang):
   XX=            -24.3130   YY=            -52.0925   ZZ=            -24.3438
   XY=              3.8747   XZ=             -0.0000   YZ=             -0.0000

 00672\CCSD=-218.5867386\CCSD(T)=-218.6249775\RMSD=5.011e-09\PG=CS [SG(
 Normal termination of Gaussian 16 at Tue Feb 13 17:08:28 2024.
