 Gaussian 16, Revision A.03,
 Gaussian 16:  ES64L-G16RevA.03 25-Dec-2016

 -----------------------------------------------
 #p ROCCSD(T,MaxCyc=200)/cc-pVTZ SCF(MaxCyc=200)
 -----------------------------------------------

 ---------
 N2_N2_174
 ---------
 Symbolic Z-matrix:
 Charge = -1 Multiplicity = 2

                         Standard orientation:
 ---------------------------------------------------------------------
 Center     Atomic      Atomic             Coordinates (Angstroms)
 Number     Number       Type             X           Y           Z
 ---------------------------------------------------------------------
      1          7           0        0.000000    0.000000    2.750000
      2          7           0        0.000000    0.000000    1.660000
      3          7           0        0.000000    0.000000   -1.660000
      4          7           0        0.000000    0.000000   -2.750000
 ---------------------------------------------------------------------

 SCF Done:  E(ROHF) =  -217.824317076     A.U. after   11 cycles
 E2 =    -0.7689329006D+00 EUMP2 =    -0.21859324997642D+03
 CCSD(T)
 CCSD(T)= -0.21862519061D+03

 Unable to determine electronic state:  an orbital has unidentified symmetry.
 Alpha  occ. eigenvalues --  -15.40824 -15.40823 -15.40110 -15.40110  -1.22232
 Alpha  occ. eigenvalues --   -1.22202  -0.54809  -0.53801  -0.41105  -0.40581
 Alpha  occ. eigenvalues --   -0.39429  -0.37963  -0.36741  -0.36630   0.12734
 Alpha virt. eigenvalues --    0.26638   0.38829   0.40532   0.61221   0.64810
 Alpha virt. eigenvalues --    0.72194   0.75776   0.76101   0.78024   0.78329
 Alpha virt. eigenvalues --    0.88954   0.89566   0.89620   0.92218   0.97097

 Mulliken charges and spin densities:
               1          2
     1  N   -0.248437   0.237955
     2  N   -0.251563   0.262045
     3  N   -0.251563   0.262045
     4  N   -0.248437   0.237955
 Sum of Mulliken charges =  -1.00000   1.00000

 Dipole moment (field-independent basis, Debye):
    X=             -0.0000    Y=              0.0000    Z=             -0.0000  Tot=              0.0000
 Quadrupole moment (field-independent basis, Debye-Ang):
   XX=            -24.3763   YY=            -22.5161   ZZ=            -54.4799
   XY=              0.0000   XZ=              0.0000   YZ=             -0.0000

 1\PMP2-0=-218.59325\MP4SDQ=-218.5903593\CCSD=-218.5868896\CCSD(T)=-218
 Normal termination of Gaussian 16 at Tue Feb 13 16:53:06 2024.
