 Gaussian 16, Revision A.03,
 Gaussian 16:  ES64L-G16RevA.03 25-Dec-2016

 -----------------------------------------------
 #p ROCCSD(T,MaxCyc=200)/cc-pVTZ SCF(MaxCyc=200)
 -----------------------------------------------

 ---------
 N2_N2_256
 ---------
 Symbolic Z-matrix:
 Charge = -1 Multiplicity = 2

                         Standard orientation:
 ---------------------------------------------------------------------
 Center     Atomic      Atomic             Coordinates (Angstroms)
 Number     Number       Type             X           Y           Z
 ---------------------------------------------------------------------
      1          7           0        0.578060   -3.050560    0.000000
      2          7           0       -0.192687   -2.279813    0.000000
      3          7           0       -0.192687    2.120187   -0.000000
      4          7           0       -0.192687    3.210186   -0.000000
 ---------------------------------------------------------------------

 SCF Done:  E(ROHF) =  -217.820395950     A.U. after   16 cycles
 E2 =    -0.7699705770D+00 EUMP2 =    -0.21859036652713D+03
 CCSD(T)
 CCSD(T)= -0.21862033544D+03

 The electronic state is 2-A".
 Alpha  occ. eigenvalues --  -15.41949 -15.41600 -15.41478 -15.41153  -1.23458
 Alpha  occ. eigenvalues --   -1.23126  -0.55674  -0.55381  -0.42198  -0.41892
 Alpha  occ. eigenvalues --   -0.40122  -0.39822  -0.37929  -0.37580   0.13195
 Alpha virt. eigenvalues --    0.23420   0.38374   0.38611   0.57205   0.63445
 Alpha virt. eigenvalues --    0.73100   0.75773   0.75917   0.76207   0.76408
 Alpha virt. eigenvalues --    0.79934   0.88631   0.89193   0.90755   0.92022

 Mulliken charges and spin densities:
               1          2
     1  N   -0.265608   0.247417
     2  N   -0.238300   0.256582
     3  N   -0.236382   0.253876
     4  N   -0.259711   0.242125
 Sum of Mulliken charges =  -1.00000   1.00000

 Dipole moment (field-independent basis, Debye):
    X=             -0.0726    Y=              0.0608    Z=             -0.0000  Tot=              0.0947
 Quadrupole moment (field-independent basis, Debye-Ang):
   XX=            -24.2600   YY=            -63.0833   ZZ=            -24.2659
   XY=              4.2648   XZ=             -0.0000   YZ=              0.0000

 5\CCSD=-218.5834249\CCSD(T)=-218.6203354\RMSD=2.682e-09\PG=CS [SG(N4)]
 Normal termination of Gaussian 16 at Tue Feb 13 19:08:11 2024.
