 Gaussian 16, Revision A.03,
 Gaussian 16:  ES64L-G16RevA.03 25-Dec-2016

 -----------------------------------------------
 #p ROCCSD(T,MaxCyc=200)/cc-pVTZ SCF(MaxCyc=200)
 -----------------------------------------------

 ---------
 N2_N2_189
 ---------
 Symbolic Z-matrix:
 Charge = -1 Multiplicity = 2

                         Standard orientation:
 ---------------------------------------------------------------------
 Center     Atomic      Atomic             Coordinates (Angstroms)
 Number     Number       Type             X           Y           Z
 ---------------------------------------------------------------------
      1          7           0        0.000000    0.000000    2.850000
      2          7           0        0.000000    0.000000    1.760000
      3          7           0        0.000000    0.000000   -1.760000
      4          7           0        0.000000    0.000000   -2.850000
 ---------------------------------------------------------------------

 SCF Done:  E(ROHF) =  -217.823088149     A.U. after   11 cycles
 E2 =    -0.7692102730D+00 EUMP2 =    -0.21859229842226D+03
 CCSD(T)
 CCSD(T)= -0.21862393228D+03

 Unable to determine electronic state:  an orbital has unidentified symmetry.
 Alpha  occ. eigenvalues --  -15.41037 -15.41037 -15.40392 -15.40392  -1.22475
 Alpha  occ. eigenvalues --   -1.22455  -0.54932  -0.54222  -0.41342  -0.40907
 Alpha  occ. eigenvalues --   -0.39503  -0.38476  -0.36972  -0.36899   0.12895
 Alpha virt. eigenvalues --    0.25833   0.38781   0.40054   0.58714   0.65199
 Alpha virt. eigenvalues --    0.71927   0.75870   0.76183   0.77564   0.77843
 Alpha virt. eigenvalues --    0.88682   0.89421   0.89775   0.92423   0.95745

 Mulliken charges and spin densities:
               1          2
     1  N   -0.249261   0.239762
     2  N   -0.250739   0.260238
     3  N   -0.250739   0.260238
     4  N   -0.249261   0.239762
 Sum of Mulliken charges =  -1.00000   1.00000

 Dipole moment (field-independent basis, Debye):
    X=             -0.0000    Y=              0.0000    Z=             -0.0000  Tot=              0.0000
 Quadrupole moment (field-independent basis, Debye-Ang):
   XX=            -24.3474   YY=            -22.5086   ZZ=            -56.5949
   XY=              0.0000   XZ=              0.0000   YZ=             -0.0000

 Normal termination of Gaussian 16 at Tue Feb 13 17:15:27 2024.
