 Gaussian 16, Revision A.03,
 Gaussian 16:  ES64L-G16RevA.03 25-Dec-2016

 -----------------------------------------------
 #p ROCCSD(T,MaxCyc=200)/cc-pVTZ SCF(MaxCyc=200)
 -----------------------------------------------

 --------
 N2_N2_93
 --------
 Symbolic Z-matrix:
 Charge = -1 Multiplicity = 2

                         Standard orientation:
 ---------------------------------------------------------------------
 Center     Atomic      Atomic             Coordinates (Angstroms)
 Number     Number       Type             X           Y           Z
 ---------------------------------------------------------------------
      1          7           0        0.000000    0.000000    2.210000
      2          7           0        0.000000    0.000000    1.120000
      3          7           0        0.000000    0.000000   -1.120000
      4          7           0        0.000000    0.000000   -2.210000
 ---------------------------------------------------------------------

 SCF Done:  E(ROHF) =  -217.811009086     A.U. after   12 cycles
 E2 =    -0.7697150246D+00 EUMP2 =    -0.21858072411024D+03
 CCSD(T)
 CCSD(T)= -0.21861397557D+03

 Unable to determine electronic state:  an orbital has unidentified symmetry.
 Alpha  occ. eigenvalues --  -15.38299 -15.38298 -15.37478 -15.37477  -1.20228
 Alpha  occ. eigenvalues --   -1.19866  -0.56777  -0.49438  -0.40182  -0.39611
 Alpha  occ. eigenvalues --   -0.37632  -0.35133  -0.33989  -0.30450   0.10567
 Alpha virt. eigenvalues --    0.33725   0.38766   0.45065   0.63345   0.65893
 Alpha virt. eigenvalues --    0.76389   0.76656   0.81302   0.82039   0.89917
 Alpha virt. eigenvalues --    0.90746   0.92354   0.94891   0.95873   1.06425

 Mulliken charges and spin densities:
               1          2
     1  N   -0.254702   0.226730
     2  N   -0.245298   0.273270
     3  N   -0.245298   0.273270
     4  N   -0.254702   0.226730
 Sum of Mulliken charges =  -1.00000   1.00000

 Dipole moment (field-independent basis, Debye):
    X=             -0.0000    Y=              0.0000    Z=             -0.0000  Tot=              0.0000
 Quadrupole moment (field-independent basis, Debye-Ang):
   XX=            -22.5715   YY=            -24.5216   ZZ=            -45.1881
   XY=              0.0000   XZ=              0.0000   YZ=             -0.0000

 091\PMP2-0=-218.5807241\MP4SDQ=-218.5792981\CCSD=-218.5754692\CCSD(T)=
 Normal termination of Gaussian 16 at Tue Feb 13 14:49:54 2024.
