 Gaussian 16, Revision A.03,
 Gaussian 16:  ES64L-G16RevA.03 25-Dec-2016

 -----------------------------------------------
 #p ROCCSD(T,MaxCyc=200)/cc-pVTZ SCF(MaxCyc=200)
 -----------------------------------------------

 --------
 N2_N2_24
 --------
 Symbolic Z-matrix:
 Charge = -1 Multiplicity = 2

                         Standard orientation:
 ---------------------------------------------------------------------
 Center     Atomic      Atomic             Coordinates (Angstroms)
 Number     Number       Type             X           Y           Z
 ---------------------------------------------------------------------
      1          7           0        0.000000    0.000000    1.750000
      2          7           0        0.000000    0.000000    0.660000
      3          7           0        0.000000    0.000000   -0.660000
      4          7           0        0.000000    0.000000   -1.750000
 ---------------------------------------------------------------------

 SCF Done:  E(ROHF) =  -217.519501938     A.U. after   11 cycles
 E2 =    -0.8505024585D+00 EUMP2 =    -0.21837000439684D+03
 CCSD(T)
 CCSD(T)= -0.21837895338D+03

 Unable to determine electronic state:  an orbital has unidentified symmetry.
 Alpha  occ. eigenvalues --  -15.49679 -15.49589 -15.33019 -15.33017  -1.26893
 Alpha  occ. eigenvalues --   -1.19308  -0.90078  -0.50895  -0.48974  -0.41796
 Alpha  occ. eigenvalues --   -0.38998  -0.35952  -0.34053   0.00946   0.01931
 Alpha virt. eigenvalues --    0.42352   0.44940   0.48809   0.65614   0.65622
 Alpha virt. eigenvalues --    0.74346   0.74867   0.76046   0.84591   0.85868
 Alpha virt. eigenvalues --    0.86421   0.94746   0.95967   1.04471   1.09291

 Mulliken charges and spin densities:
               1          2
     1  N   -0.352066   0.368225
     2  N   -0.147934   0.131775
     3  N   -0.147934   0.131775
     4  N   -0.352066   0.368225
 Sum of Mulliken charges =  -1.00000   1.00000

 Dipole moment (field-independent basis, Debye):
    X=             -0.0000    Y=             -0.0000    Z=              0.0000  Tot=              0.0000
 Quadrupole moment (field-independent basis, Debye-Ang):
   XX=            -24.5598   YY=            -22.9511   ZZ=            -46.4920
   XY=              0.0000   XZ=              0.0000   YZ=             -0.0000

 019\PMP2-0=-218.3700044\MP4SDQ=-218.3344983\CCSD=-218.328256\CCSD(T)=-
 Normal termination of Gaussian 16 at Tue Feb 13 12:57:31 2024.
