 Gaussian 16, Revision A.03,
 Gaussian 16:  ES64L-G16RevA.03 25-Dec-2016

 -----------------------------------------------
 #p ROCCSD(T,MaxCyc=200)/cc-pVTZ SCF(MaxCyc=200)
 -----------------------------------------------

 ---------
 N2_N2_149
 ---------
 Symbolic Z-matrix:
 Charge = -1 Multiplicity = 2

                         Standard orientation:
 ---------------------------------------------------------------------
 Center     Atomic      Atomic             Coordinates (Angstroms)
 Number     Number       Type             X           Y           Z
 ---------------------------------------------------------------------
      1          7           0       -0.817500   -1.752500    0.000000
      2          7           0        0.272500   -1.752500    0.000000
      3          7           0        0.272500    1.207500    0.000000
      4          7           0        0.272500    2.297500    0.000000
 ---------------------------------------------------------------------

 SCF Done:  E(ROHF) =  -217.832682589     A.U. after   17 cycles
 E2 =    -0.7686443596D+00 EUMP2 =    -0.21860132694872D+03
 CCSD(T)
 CCSD(T)= -0.21863457705D+03

 The electronic state is 2-A'.
 Alpha  occ. eigenvalues --  -15.41243 -15.40133 -15.38552 -15.38174  -1.22275
 Alpha  occ. eigenvalues --   -1.20036  -0.54281  -0.52579  -0.40441  -0.40321
 Alpha  occ. eigenvalues --   -0.37892  -0.36723  -0.36059  -0.34619   0.11625
 Alpha virt. eigenvalues --    0.30287   0.39714   0.41449   0.61926   0.64798
 Alpha virt. eigenvalues --    0.74819   0.75640   0.76599   0.78895   0.80649
 Alpha virt. eigenvalues --    0.82778   0.88964   0.90760   0.95430   0.97640

 Mulliken charges and spin densities:
               1          2
     1  N   -0.294725   0.263900
     2  N   -0.243159   0.274589
     3  N   -0.218747   0.250984
     4  N   -0.243369   0.210528
 Sum of Mulliken charges =  -1.00000   1.00000

 Dipole moment (field-independent basis, Debye):
    X=              0.1814    Y=              0.4612    Z=              0.0000  Tot=              0.4956
 Quadrupole moment (field-independent basis, Debye-Ang):
   XX=            -27.1689   YY=            -42.8538   ZZ=            -22.5247
   XY=             -2.5023   XZ=              0.0000   YZ=              0.0000

 4\CCSD(T)=-218.634577\RMSD=5.605e-09\PG=CS [SG(N4)]\\@
 Normal termination of Gaussian 16 at Tue Feb 13 16:17:09 2024.
