 Gaussian 16, Revision A.03,
 Gaussian 16:  ES64L-G16RevA.03 25-Dec-2016

 -----------------------------------------------
 #p ROCCSD(T,MaxCyc=200)/cc-pVTZ SCF(MaxCyc=200)
 -----------------------------------------------

 ---------
 N2_N2_279
 ---------
 Symbolic Z-matrix:
 Charge = -1 Multiplicity = 2

                         Standard orientation:
 ---------------------------------------------------------------------
 Center     Atomic      Atomic             Coordinates (Angstroms)
 Number     Number       Type             X           Y           Z
 ---------------------------------------------------------------------
      1          7           0        0.000000    0.000000    3.450000
      2          7           0        0.000000    0.000000    2.360000
      3          7           0        0.000000    0.000000   -2.360000
      4          7           0        0.000000    0.000000   -3.450000
 ---------------------------------------------------------------------

 SCF Done:  E(ROHF) =  -217.819686386     A.U. after   11 cycles
 E2 =    -0.7701715040D+00 EUMP2 =    -0.21858985789048D+03
 CCSD(T)
 CCSD(T)= -0.21862010258D+03

 Unable to determine electronic state:  an orbital has unidentified symmetry.
 Alpha  occ. eigenvalues --  -15.42074 -15.42074 -15.41634 -15.41634  -1.23618
 Alpha  occ. eigenvalues --   -1.23614  -0.55896  -0.55788  -0.42466  -0.42278
 Alpha  occ. eigenvalues --   -0.40333  -0.40222  -0.38096  -0.38090   0.13266
 Alpha virt. eigenvalues --    0.22697   0.38144   0.38272   0.56364   0.63869
 Alpha virt. eigenvalues --    0.73382   0.75588   0.75766   0.75882   0.76021
 Alpha virt. eigenvalues --    0.78923   0.88463   0.88627   0.90744   0.91396

 Mulliken charges and spin densities:
               1          2
     1  N   -0.261312   0.244832
     2  N   -0.238688   0.255168
     3  N   -0.238688   0.255168
     4  N   -0.261312   0.244832
 Sum of Mulliken charges =  -1.00000   1.00000

 Dipole moment (field-independent basis, Debye):
    X=             -0.0000    Y=              0.0000    Z=              0.0000  Tot=              0.0000
 Quadrupole moment (field-independent basis, Debye-Ang):
   XX=            -24.2574   YY=            -22.4831   ZZ=            -71.2691
   XY=              0.0000   XZ=              0.0000   YZ=             -0.0000

 Normal termination of Gaussian 16 at Tue Feb 13 19:57:30 2024.
