 Gaussian 16, Revision A.03,
 Gaussian 16:  ES64L-G16RevA.03 25-Dec-2016

 -----------------------------------------------
 #p ROCCSD(T,MaxCyc=200)/cc-pVTZ SCF(MaxCyc=200)
 -----------------------------------------------

 ---------
 N2_N2_288
 ---------
 Symbolic Z-matrix:
 Charge = -1 Multiplicity = 2

                         Standard orientation:
 ---------------------------------------------------------------------
 Center     Atomic      Atomic             Coordinates (Angstroms)
 Number     Number       Type             X           Y           Z
 ---------------------------------------------------------------------
      1          7           0        0.000000    0.000000    3.510000
      2          7           0        0.000000    0.000000    2.420000
      3          7           0        0.000000    0.000000   -2.420000
      4          7           0        0.000000    0.000000   -3.510000
 ---------------------------------------------------------------------

 SCF Done:  E(ROHF) =  -217.819608509     A.U. after   11 cycles
 E2 =    -0.7702326172D+00 EUMP2 =    -0.21858984112624D+03
 CCSD(T)
 CCSD(T)= -0.21861999474D+03

 Unable to determine electronic state:  an orbital has unidentified symmetry.
 Alpha  occ. eigenvalues --  -15.42164 -15.42164 -15.41733 -15.41733  -1.23711
 Alpha  occ. eigenvalues --   -1.23708  -0.55988  -0.55895  -0.42557  -0.42380
 Alpha  occ. eigenvalues --   -0.40422  -0.40334  -0.38189  -0.38185   0.13275
 Alpha virt. eigenvalues --    0.22485   0.38063   0.38159   0.56888   0.63376
 Alpha virt. eigenvalues --    0.73595   0.75516   0.75655   0.75809   0.75911
 Alpha virt. eigenvalues --    0.77973   0.88382   0.88498   0.90724   0.91211

 Mulliken charges and spin densities:
               1          2
     1  N   -0.261420   0.245063
     2  N   -0.238580   0.254937
     3  N   -0.238580   0.254937
     4  N   -0.261420   0.245063
 Sum of Mulliken charges =  -1.00000   1.00000

 Dipole moment (field-independent basis, Debye):
    X=             -0.0000    Y=              0.0000    Z=              0.0000  Tot=              0.0000
 Quadrupole moment (field-independent basis, Debye-Ang):
   XX=            -24.2543   YY=            -22.4818   ZZ=            -72.9248
   XY=              0.0000   XZ=              0.0000   YZ=             -0.0000

 Normal termination of Gaussian 16 at Tue Feb 13 20:30:23 2024.
