 Gaussian 16, Revision A.03,
 Gaussian 16:  ES64L-G16RevA.03 25-Dec-2016

 -----------------------------------------------
 #p ROCCSD(T,MaxCyc=200)/cc-pVTZ SCF(MaxCyc=200)
 -----------------------------------------------

 ---------
 N2_N2_177
 ---------
 Symbolic Z-matrix:
 Charge = -1 Multiplicity = 2

                         Standard orientation:
 ---------------------------------------------------------------------
 Center     Atomic      Atomic             Coordinates (Angstroms)
 Number     Number       Type             X           Y           Z
 ---------------------------------------------------------------------
      1          7           0        0.000000    0.000000    2.770000
      2          7           0        0.000000    0.000000    1.680000
      3          7           0        0.000000    0.000000   -1.680000
      4          7           0        0.000000    0.000000   -2.770000
 ---------------------------------------------------------------------

 SCF Done:  E(ROHF) =  -217.824059925     A.U. after   11 cycles
 E2 =    -0.7689906867D+00 EUMP2 =    -0.21859305061165D+03
 CCSD(T)
 CCSD(T)= -0.21862492911D+03

 Unable to determine electronic state:  an orbital has unidentified symmetry.
 Alpha  occ. eigenvalues --  -15.40868 -15.40868 -15.40169 -15.40169  -1.22283
 Alpha  occ. eigenvalues --   -1.22255  -0.54831  -0.53891  -0.41154  -0.40649
 Alpha  occ. eigenvalues --   -0.39440  -0.38075  -0.36788  -0.36687   0.12770
 Alpha virt. eigenvalues --    0.26468   0.38821   0.40431   0.60693   0.64891
 Alpha virt. eigenvalues --    0.72105   0.75797   0.76120   0.77928   0.78227
 Alpha virt. eigenvalues --    0.88902   0.89580   0.89599   0.92251   0.96812

 Mulliken charges and spin densities:
               1          2
     1  N   -0.248499   0.238348
     2  N   -0.251501   0.261652
     3  N   -0.251501   0.261652
     4  N   -0.248499   0.238348
 Sum of Mulliken charges =  -1.00000   1.00000

 Dipole moment (field-independent basis, Debye):
    X=             -0.0000    Y=             -0.0000    Z=             -0.0000  Tot=              0.0000
 Quadrupole moment (field-independent basis, Debye-Ang):
   XX=            -22.5145   YY=            -24.3702   ZZ=            -54.8949
   XY=              0.0000   XZ=              0.0000   YZ=             -0.0000

 Normal termination of Gaussian 16 at Tue Feb 13 16:57:25 2024.
