 Gaussian 16, Revision A.03,
 Gaussian 16:  ES64L-G16RevA.03 25-Dec-2016

 -----------------------------------------------
 #p ROCCSD(T,MaxCyc=200)/cc-pVTZ SCF(MaxCyc=200)
 -----------------------------------------------

 ---------
 N2_N2_296
 ---------
 Symbolic Z-matrix:
 Charge = -1 Multiplicity = 2

                         Standard orientation:
 ---------------------------------------------------------------------
 Center     Atomic      Atomic             Coordinates (Angstroms)
 Number     Number       Type             X           Y           Z
 ---------------------------------------------------------------------
      1          7           0       -0.817500   -2.732500    0.000000
      2          7           0        0.272500   -2.732500    0.000000
      3          7           0        0.272500    2.187500    0.000000
      4          7           0        0.272500    3.277500    0.000000
 ---------------------------------------------------------------------

 SCF Done:  E(ROHF) =  -217.820608040     A.U. after   15 cycles
 E2 =    -0.7699689833D+00 EUMP2 =    -0.21859057702296D+03
 CCSD(T)
 CCSD(T)= -0.21861941054D+03

 The electronic state is 2-A'.
 Alpha  occ. eigenvalues --  -15.42226 -15.41772 -15.41649 -15.41304  -1.23729
 Alpha  occ. eigenvalues --   -1.23205  -0.55924  -0.55574  -0.42410  -0.42008
 Alpha  occ. eigenvalues --   -0.40382  -0.40003  -0.38199  -0.37714   0.13172
 Alpha virt. eigenvalues --    0.23090   0.38128   0.38474   0.60153   0.60468
 Alpha virt. eigenvalues --    0.74231   0.75269   0.75637   0.75885   0.76302
 Alpha virt. eigenvalues --    0.77579   0.88430   0.89043   0.90798   0.91732

 Mulliken charges and spin densities:
               1          2
     1  N   -0.256446   0.252824
     2  N   -0.250535   0.254223
     3  N   -0.233560   0.251923
     4  N   -0.259459   0.241030
 Sum of Mulliken charges =  -1.00000   1.00000

 Dipole moment (field-independent basis, Debye):
    X=              0.0296    Y=              0.0900    Z=              0.0000  Tot=              0.0947
 Quadrupole moment (field-independent basis, Debye-Ang):
   XX=            -26.8731   YY=            -63.7691   ZZ=            -22.4798
   XY=             -3.7279   XZ=              0.0000   YZ=              0.0000

 CCSD(T)=-218.6194105\RMSD=3.500e-09\PG=CS [SG(N4)]\\@
 Normal termination of Gaussian 16 at Tue Feb 13 20:52:33 2024.
