 Gaussian 16, Revision A.03,
 Gaussian 16:  ES64L-G16RevA.03 25-Dec-2016

 -----------------------------------------------
 #p ROCCSD(T,MaxCyc=200)/cc-pVTZ SCF(MaxCyc=200)
 -----------------------------------------------

 ---------
 N2_N2_119
 ---------
 Symbolic Z-matrix:
 Charge = -1 Multiplicity = 2

                         Standard orientation:
 ---------------------------------------------------------------------
 Center     Atomic      Atomic             Coordinates (Angstroms)
 Number     Number       Type             X           Y           Z
 ---------------------------------------------------------------------
      1          7           0       -0.817500   -1.552500    0.000000
      2          7           0        0.272500   -1.552500    0.000000
      3          7           0        0.272500    1.007500    0.000000
      4          7           0        0.272500    2.097500    0.000000
 ---------------------------------------------------------------------

 SCF Done:  E(ROHF) =  -217.831074865     A.U. after   19 cycles
 E2 =    -0.7694310499D+00 EUMP2 =    -0.21860050591526D+03
 CCSD(T)
 CCSD(T)= -0.21863466647D+03

 The electronic state is 2-A'.
 Alpha  occ. eigenvalues --  -15.41375 -15.40103 -15.36500 -15.36071  -1.22311
 Alpha  occ. eigenvalues --   -1.18251  -0.54616  -0.51076  -0.41174  -0.39996
 Alpha  occ. eigenvalues --   -0.36777  -0.36274  -0.33285  -0.32853   0.10688
 Alpha virt. eigenvalues --    0.33076   0.39761   0.42984   0.62812   0.64646
 Alpha virt. eigenvalues --    0.75637   0.77301   0.78806   0.81629   0.82386
 Alpha virt. eigenvalues --    0.85386   0.89218   0.93769   0.96447   0.98752

 Mulliken charges and spin densities:
               1          2
     1  N   -0.326484   0.277827
     2  N   -0.253649   0.304105
     3  N   -0.181690   0.232405
     4  N   -0.238177   0.185663
 Sum of Mulliken charges =  -1.00000   1.00000

 Dipole moment (field-independent basis, Debye):
    X=              0.3395    Y=              0.9678    Z=              0.0000  Tot=              1.0256
 Quadrupole moment (field-independent basis, Debye-Ang):
   XX=            -27.2749   YY=            -39.9824   ZZ=            -22.5349
   XY=             -2.2575   XZ=              0.0000   YZ=              0.0000

 92\CCSD(T)=-218.6346665\RMSD=3.683e-09\PG=CS [SG(N4)]\\@
 Normal termination of Gaussian 16 at Tue Feb 13 15:30:03 2024.
