 Gaussian 16, Revision A.03,
 Gaussian 16:  ES64L-G16RevA.03 25-Dec-2016

 -----------------------------------------------
 #p ROCCSD(T,MaxCyc=200)/cc-pVTZ SCF(MaxCyc=200)
 -----------------------------------------------

 ---------
 N2_N2_229
 ---------
 Symbolic Z-matrix:
 Charge = -1 Multiplicity = 2

                         Standard orientation:
 ---------------------------------------------------------------------
 Center     Atomic      Atomic             Coordinates (Angstroms)
 Number     Number       Type             X           Y           Z
 ---------------------------------------------------------------------
      1          7           0        0.578060   -2.870560   -0.000000
      2          7           0       -0.192687   -2.099813   -0.000000
      3          7           0       -0.192687    1.940186    0.000000
      4          7           0       -0.192687    3.030187    0.000000
 ---------------------------------------------------------------------

 SCF Done:  E(ROHF) =  -217.821225714     A.U. after   18 cycles
 E2 =    -0.7697571006D+00 EUMP2 =    -0.21859098281490D+03
 CCSD(T)
 CCSD(T)= -0.21862180506D+03

 The electronic state is 2-A".
 Alpha  occ. eigenvalues --  -15.41689 -15.41254 -15.41168 -15.40755  -1.23164
 Alpha  occ. eigenvalues --   -1.22749  -0.55375  -0.54963  -0.41884  -0.41497
 Alpha  occ. eigenvalues --   -0.39842  -0.39390  -0.37634  -0.37192   0.13110
 Alpha virt. eigenvalues --    0.24269   0.38644   0.38977   0.56995   0.64123
 Alpha virt. eigenvalues --    0.72464   0.75909   0.75937   0.76703   0.77010
 Alpha virt. eigenvalues --    0.82615   0.88857   0.89901   0.90545   0.93060

 Mulliken charges and spin densities:
               1          2
     1  N   -0.265943   0.247038
     2  N   -0.239082   0.258137
     3  N   -0.238216   0.254453
     4  N   -0.256759   0.240372
 Sum of Mulliken charges =  -1.00000   1.00000

 Dipole moment (field-independent basis, Debye):
    X=             -0.0839    Y=              0.0781    Z=              0.0000  Tot=              0.1146
 Quadrupole moment (field-independent basis, Debye-Ang):
   XX=            -24.2749   YY=            -58.7088   ZZ=            -24.2860
   XY=              4.1176   XZ=              0.0000   YZ=             -0.0000

 7021\CCSD=-218.5838877\CCSD(T)=-218.6218051\RMSD=6.975e-09\PG=CS [SG(N
 Normal termination of Gaussian 16 at Tue Feb 13 18:18:12 2024.
