 Gaussian 16, Revision A.03,
 Gaussian 16:  ES64L-G16RevA.03 25-Dec-2016

 -----------------------------------------------
 #p ROCCSD(T,MaxCyc=200)/cc-pVTZ SCF(MaxCyc=200)
 -----------------------------------------------

 ---------
 N2_N2_261
 ---------
 Symbolic Z-matrix:
 Charge = -1 Multiplicity = 2

                         Standard orientation:
 ---------------------------------------------------------------------
 Center     Atomic      Atomic             Coordinates (Angstroms)
 Number     Number       Type             X           Y           Z
 ---------------------------------------------------------------------
      1          7           0        0.000000    0.000000    3.330000
      2          7           0        0.000000    0.000000    2.240000
      3          7           0        0.000000    0.000000   -2.240000
      4          7           0        0.000000    0.000000   -3.330000
 ---------------------------------------------------------------------

 SCF Done:  E(ROHF) =  -217.819933364     A.U. after   11 cycles
 E2 =    -0.7700438816D+00 EUMP2 =    -0.21858997724582D+03
 CCSD(T)
 CCSD(T)= -0.21862042651D+03

 Unable to determine electronic state:  an orbital has unidentified symmetry.
 Alpha  occ. eigenvalues --  -15.41887 -15.41887 -15.41426 -15.41426  -1.23421
 Alpha  occ. eigenvalues --   -1.23416  -0.55705  -0.55554  -0.42275  -0.42058
 Alpha  occ. eigenvalues --   -0.40153  -0.39975  -0.37900  -0.37890   0.13241
 Alpha virt. eigenvalues --    0.23161   0.38304   0.38523   0.55390   0.64733
 Alpha virt. eigenvalues --    0.72931   0.75724   0.76015   0.76018   0.76268
 Alpha virt. eigenvalues --    0.81431   0.88630   0.88980   0.90728   0.91856

 Mulliken charges and spin densities:
               1          2
     1  N   -0.260360   0.244292
     2  N   -0.239640   0.255708
     3  N   -0.239640   0.255708
     4  N   -0.260360   0.244292
 Sum of Mulliken charges =  -1.00000   1.00000

 Dipole moment (field-independent basis, Debye):
    X=             -0.0000    Y=             -0.0000    Z=              0.0000  Tot=              0.0000
 Quadrupole moment (field-independent basis, Debye-Ang):
   XX=            -22.4861   YY=            -24.2659   ZZ=            -68.0613
   XY=              0.0000   XZ=              0.0000   YZ=             -0.0000

 Normal termination of Gaussian 16 at Tue Feb 13 19:17:58 2024.
