 Gaussian 16, Revision A.03,
 Gaussian 16:  ES64L-G16RevA.03 25-Dec-2016

 -----------------------------------------------
 #p ROCCSD(T,MaxCyc=200)/cc-pVTZ SCF(MaxCyc=200)
 -----------------------------------------------

 ---------
 N2_N2_147
 ---------
 Symbolic Z-matrix:
 Charge = -1 Multiplicity = 2

                         Standard orientation:
 ---------------------------------------------------------------------
 Center     Atomic      Atomic             Coordinates (Angstroms)
 Number     Number       Type             X           Y           Z
 ---------------------------------------------------------------------
      1          7           0        0.000000    0.000000    2.570000
      2          7           0        0.000000    0.000000    1.480000
      3          7           0        0.000000    0.000000   -1.480000
      4          7           0        0.000000    0.000000   -2.570000
 ---------------------------------------------------------------------

 SCF Done:  E(ROHF) =  -217.826487740     A.U. after   11 cycles
 E2 =    -0.7684153359D+00 EUMP2 =    -0.21859490307631D+03
 CCSD(T)
 CCSD(T)= -0.21862740052D+03

 Unable to determine electronic state:  an orbital has unidentified symmetry.
 Alpha  occ. eigenvalues --  -15.40346 -15.40345 -15.39492 -15.39491  -1.21722
 Alpha  occ. eigenvalues --   -1.21657  -0.54734  -0.52813  -0.40632  -0.39868
 Alpha  occ. eigenvalues --   -0.39428  -0.36658  -0.36274  -0.36037   0.12307
 Alpha virt. eigenvalues --    0.28411   0.38875   0.41603   0.64143   0.65369
 Alpha virt. eigenvalues --    0.74954   0.75598   0.75949   0.78972   0.79358
 Alpha virt. eigenvalues --    0.89435   0.89589   0.90010   0.92233   0.99948

 Mulliken charges and spin densities:
               1          2
     1  N   -0.251095   0.233800
     2  N   -0.248905   0.266200
     3  N   -0.248905   0.266200
     4  N   -0.251095   0.233800
 Sum of Mulliken charges =  -1.00000   1.00000

 Dipole moment (field-independent basis, Debye):
    X=             -0.0000    Y=              0.0000    Z=             -0.0000  Tot=              0.0000
 Quadrupole moment (field-independent basis, Debye-Ang):
   XX=            -24.4364   YY=            -22.5333   ZZ=            -50.9372
   XY=              0.0000   XZ=              0.0000   YZ=             -0.0000

 Normal termination of Gaussian 16 at Tue Feb 13 16:13:46 2024.
