 Gaussian 16, Revision A.03,
 Gaussian 16:  ES64L-G16RevA.03 25-Dec-2016

 -----------------------------------------------
 #p ROCCSD(T,MaxCyc=200)/cc-pVTZ SCF(MaxCyc=200)
 -----------------------------------------------

 --------
 N2_N2_67
 --------
 Symbolic Z-matrix:
 Charge = -1 Multiplicity = 2

                         Standard orientation:
 ---------------------------------------------------------------------
 Center     Atomic      Atomic             Coordinates (Angstroms)
 Number     Number       Type             X           Y           Z
 ---------------------------------------------------------------------
      1          7           0        0.578060   -1.790560    0.000000
      2          7           0       -0.192687   -1.019813    0.000000
      3          7           0       -0.192687    0.860187   -0.000000
      4          7           0       -0.192687    1.950186   -0.000000
 ---------------------------------------------------------------------

 SCF Done:  E(ROHF) =  -217.773048667     A.U. after   21 cycles
 E2 =    -0.7706291482D+00 EUMP2 =    -0.21854367781527D+03
 CCSD(T)
 CCSD(T)= -0.21858127404D+03

 The electronic state is 2-A".
 Alpha  occ. eigenvalues --  -15.44322 -15.41112 -15.30193 -15.29623  -1.24031
 Alpha  occ. eigenvalues --   -1.13775  -0.61607  -0.48344  -0.40423  -0.40126
 Alpha  occ. eigenvalues --   -0.38985  -0.35592  -0.28466  -0.22660   0.06834
 Alpha virt. eigenvalues --    0.38123   0.40768   0.46527   0.63457   0.67762
 Alpha virt. eigenvalues --    0.76067   0.76669   0.79946   0.84410   0.85862
 Alpha virt. eigenvalues --    0.90477   0.93721   0.95039   1.04089   1.04497

 Mulliken charges and spin densities:
               1          2
     1  N   -0.212878   0.066151
     2  N   -0.004557   0.075045
     3  N   -0.447834   0.412306
     4  N   -0.334730   0.446498
 Sum of Mulliken charges =  -1.00000   1.00000

 Dipole moment (field-independent basis, Debye):
    X=              0.1321    Y=             -3.2092    Z=              0.0000  Tot=              3.2119
 Quadrupole moment (field-independent basis, Debye-Ang):
   XX=            -24.2090   YY=            -40.6468   ZZ=            -24.1617
   XY=              2.9886   XZ=             -0.0000   YZ=              0.0000

 6295\CCSD=-218.5412315\CCSD(T)=-218.581274\RMSD=3.031e-09\PG=CS [SG(N4
 Normal termination of Gaussian 16 at Tue Feb 13 14:14:58 2024.
