 Gaussian 16, Revision A.03,
 Gaussian 16:  ES64L-G16RevA.03 25-Dec-2016

 -----------------------------------------------
 #p ROCCSD(T,MaxCyc=200)/cc-pVTZ SCF(MaxCyc=200)
 -----------------------------------------------

 --------
 N2_N2_22
 --------
 Symbolic Z-matrix:
 Charge = -1 Multiplicity = 2

                         Standard orientation:
 ---------------------------------------------------------------------
 Center     Atomic      Atomic             Coordinates (Angstroms)
 Number     Number       Type             X           Y           Z
 ---------------------------------------------------------------------
      1          7           0        0.578060   -1.490560    0.000000
      2          7           0       -0.192687   -0.719813    0.000000
      3          7           0       -0.192687    0.560187   -0.000000
      4          7           0       -0.192687    1.650186   -0.000000
 ---------------------------------------------------------------------

 SCF Done:  E(ROHF) =  -217.600745747     A.U. after   18 cycles
 E2 =    -0.7710395480D+00 EUMP2 =    -0.21837178529464D+03
 CCSD(T)
 CCSD(T)= -0.21841628078D+03

 The electronic state is 2-A".
 Alpha  occ. eigenvalues --  -15.44001 -15.40996 -15.38565 -15.26331  -1.27743
 Alpha  occ. eigenvalues --   -1.17089  -0.87223  -0.51695  -0.47447  -0.45361
 Alpha  occ. eigenvalues --   -0.36101  -0.32864  -0.30315  -0.02911  -0.02875
 Alpha virt. eigenvalues --    0.40377   0.47537   0.58662   0.62858   0.71598
 Alpha virt. eigenvalues --    0.75461   0.76442   0.79891   0.85055   0.85695
 Alpha virt. eigenvalues --    0.92268   0.94222   0.96681   1.00620   1.01804

 Mulliken charges and spin densities:
               1          2
     1  N   -0.681373   0.117207
     2  N    0.006063   0.022259
     3  N   -0.012490   0.304773
     4  N   -0.312200   0.555761
 Sum of Mulliken charges =  -1.00000   1.00000

 Dipole moment (field-independent basis, Debye):
    X=             -1.0466    Y=              2.0030    Z=             -0.0000  Tot=              2.2600
 Quadrupole moment (field-independent basis, Debye-Ang):
   XX=            -26.1192   YY=            -40.7868   ZZ=            -22.8719
   XY=              3.7132   XZ=             -0.0000   YZ=              0.0000

 645\CCSD=-218.3742908\CCSD(T)=-218.4162808\RMSD=3.761e-09\PG=CS [SG(N4
 Normal termination of Gaussian 16 at Tue Feb 13 12:55:53 2024.
