 Gaussian 16, Revision A.03,
 Gaussian 16:  ES64L-G16RevA.03 25-Dec-2016

 -----------------------------------------------
 #p ROCCSD(T,MaxCyc=200)/cc-pVTZ SCF(MaxCyc=200)
 -----------------------------------------------

 ---------
 N2_N2_133
 ---------
 Symbolic Z-matrix:
 Charge = -1 Multiplicity = 2

                         Standard orientation:
 ---------------------------------------------------------------------
 Center     Atomic      Atomic             Coordinates (Angstroms)
 Number     Number       Type             X           Y           Z
 ---------------------------------------------------------------------
      1          7           0        0.578060   -2.230560   -0.000000
      2          7           0       -0.192687   -1.459813   -0.000000
      3          7           0       -0.192687    1.300187    0.000000
      4          7           0       -0.192687    2.390186    0.000000
 ---------------------------------------------------------------------

 SCF Done:  E(ROHF) =  -217.827461762     A.U. after   17 cycles
 E2 =    -0.7688785190D+00 EUMP2 =    -0.21859634028109D+03
 CCSD(T)
 CCSD(T)= -0.21862930003D+03

 The electronic state is 2-A".
 Alpha  occ. eigenvalues --  -15.40876 -15.39942 -15.39127 -15.38068  -1.22095
 Alpha  occ. eigenvalues --   -1.20428  -0.54897  -0.52069  -0.40562  -0.39536
 Alpha  occ. eigenvalues --   -0.39130  -0.36641  -0.36228  -0.34297   0.11981
 Alpha virt. eigenvalues --    0.29459   0.39633   0.42013   0.64256   0.64978
 Alpha virt. eigenvalues --    0.74673   0.75444   0.78139   0.79829   0.81525
 Alpha virt. eigenvalues --    0.86632   0.89731   0.90540   0.96332   0.99750

 Mulliken charges and spin densities:
               1          2
     1  N   -0.276439   0.249744
     2  N   -0.250845   0.277547
     3  N   -0.226185   0.253863
     4  N   -0.246531   0.218847
 Sum of Mulliken charges =  -1.00000   1.00000

 Dipole moment (field-independent basis, Debye):
    X=             -0.1728    Y=              0.4276    Z=             -0.0000  Tot=              0.4612
 Quadrupole moment (field-independent basis, Debye-Ang):
   XX=            -24.3985   YY=            -45.7003   ZZ=            -24.4335
   XY=              3.6257   XZ=              0.0000   YZ=             -0.0000

 2812\CCSD=-218.5908866\CCSD(T)=-218.6293\RMSD=4.532e-09\PG=CS [SG(N4)]
 Normal termination of Gaussian 16 at Tue Feb 13 15:50:53 2024.
