 Gaussian 16, Revision A.03,
 Gaussian 16:  ES64L-G16RevA.03 25-Dec-2016

 -----------------------------------------------
 #p ROCCSD(T,MaxCyc=200)/cc-pVTZ SCF(MaxCyc=200)
 -----------------------------------------------

 ---------
 N2_N2_248
 ---------
 Symbolic Z-matrix:
 Charge = -1 Multiplicity = 2

                         Standard orientation:
 ---------------------------------------------------------------------
 Center     Atomic      Atomic             Coordinates (Angstroms)
 Number     Number       Type             X           Y           Z
 ---------------------------------------------------------------------
      1          7           0       -0.817500   -2.412500    0.000000
      2          7           0        0.272500   -2.412500    0.000000
      3          7           0        0.272500    1.867500    0.000000
      4          7           0        0.272500    2.957500    0.000000
 ---------------------------------------------------------------------

 SCF Done:  E(ROHF) =  -217.822405642     A.U. after   15 cycles
 E2 =    -0.7694805840D+00 EUMP2 =    -0.21859188622648D+03
 CCSD(T)
 CCSD(T)= -0.21862277456D+03

 The electronic state is 2-A'.
 Alpha  occ. eigenvalues --  -15.41790 -15.41245 -15.41047 -15.40702  -1.23228
 Alpha  occ. eigenvalues --   -1.22571  -0.55367  -0.54951  -0.41847  -0.41358
 Alpha  occ. eigenvalues --   -0.39835  -0.39356  -0.37695  -0.37092   0.13001
 Alpha virt. eigenvalues --    0.24588   0.38663   0.39085   0.59601   0.61034
 Alpha virt. eigenvalues --    0.72662   0.75773   0.76213   0.76250   0.77046
 Alpha virt. eigenvalues --    0.81504   0.88839   0.89900   0.91604   0.93766

 Mulliken charges and spin densities:
               1          2
     1  N   -0.259899   0.253390
     2  N   -0.248805   0.255694
     3  N   -0.232549   0.253151
     4  N   -0.258746   0.237764
 Sum of Mulliken charges =  -1.00000   1.00000

 Dipole moment (field-independent basis, Debye):
    X=              0.0378    Y=              0.0904    Z=              0.0000  Tot=              0.0980
 Quadrupole moment (field-independent basis, Debye-Ang):
   XX=            -26.9226   YY=            -55.9228   ZZ=            -22.4890
   XY=             -3.3424   XZ=              0.0000   YZ=              0.0000

 85\CCSD(T)=-218.6227746\RMSD=7.629e-09\PG=CS [SG(N4)]\\@
 Normal termination of Gaussian 16 at Tue Feb 13 18:51:59 2024.
