 Gaussian 16, Revision A.03,
 Gaussian 16:  ES64L-G16RevA.03 25-Dec-2016

 -----------------------------------------------
 #p ROCCSD(T,MaxCyc=200)/cc-pVTZ SCF(MaxCyc=200)
 -----------------------------------------------

 ---------
 N2_N2_117
 ---------
 Symbolic Z-matrix:
 Charge = -1 Multiplicity = 2

                         Standard orientation:
 ---------------------------------------------------------------------
 Center     Atomic      Atomic             Coordinates (Angstroms)
 Number     Number       Type             X           Y           Z
 ---------------------------------------------------------------------
      1          7           0        0.000000    0.000000    2.370000
      2          7           0        0.000000    0.000000    1.280000
      3          7           0        0.000000    0.000000   -1.280000
      4          7           0        0.000000    0.000000   -2.370000
 ---------------------------------------------------------------------

 SCF Done:  E(ROHF) =  -217.825097029     A.U. after   12 cycles
 E2 =    -0.7683214385D+00 EUMP2 =    -0.21859341846797D+03
 CCSD(T)
 CCSD(T)= -0.21862644401D+03

 Unable to determine electronic state:  an orbital has unidentified symmetry.
 Alpha  occ. eigenvalues --  -15.39496 -15.39495 -15.38544 -15.38544  -1.20989
 Alpha  occ. eigenvalues --   -1.20824  -0.55220  -0.51214  -0.40051  -0.39727
 Alpha  occ. eigenvalues --   -0.38801  -0.35664  -0.35103  -0.34142   0.11535
 Alpha virt. eigenvalues --    0.31006   0.38867   0.43240   0.63628   0.66237
 Alpha virt. eigenvalues --    0.75751   0.76089   0.80195   0.80736   0.84578
 Alpha virt. eigenvalues --    0.90097   0.90517   0.90611   0.93217   1.03500

 Mulliken charges and spin densities:
               1          2
     1  N   -0.258601   0.228814
     2  N   -0.241399   0.271186
     3  N   -0.241399   0.271186
     4  N   -0.258601   0.228814
 Sum of Mulliken charges =  -1.00000   1.00000

 Dipole moment (field-independent basis, Debye):
    X=             -0.0000    Y=              0.0000    Z=             -0.0000  Tot=              0.0000
 Quadrupole moment (field-independent basis, Debye-Ang):
   XX=            -22.5570   YY=            -24.5007   ZZ=            -47.4878
   XY=              0.0000   XZ=              0.0000   YZ=             -0.0000

 97\PMP2-0=-218.5934185\MP4SDQ=-218.5917909\CCSD=-218.5881147\CCSD(T)=-
 Normal termination of Gaussian 16 at Tue Feb 13 15:26:46 2024.
