 Gaussian 16, Revision A.03,
 Gaussian 16:  ES64L-G16RevA.03 25-Dec-2016

 -----------------------------------------------
 #p ROCCSD(T,MaxCyc=200)/cc-pVTZ SCF(MaxCyc=200)
 -----------------------------------------------

 ---------
 N2_N2_300
 ---------
 Symbolic Z-matrix:
 Charge = -1 Multiplicity = 2

                         Standard orientation:
 ---------------------------------------------------------------------
 Center     Atomic      Atomic             Coordinates (Angstroms)
 Number     Number       Type             X           Y           Z
 ---------------------------------------------------------------------
      1          7           0        0.000000    0.000000    3.590000
      2          7           0        0.000000    0.000000    2.500000
      3          7           0        0.000000    0.000000   -2.500000
      4          7           0        0.000000    0.000000   -3.590000
 ---------------------------------------------------------------------

 SCF Done:  E(ROHF) =  -217.819540467     A.U. after   11 cycles
 E2 =    -0.7703125610D+00 EUMP2 =    -0.21858985302760D+03
 CCSD(T)
 CCSD(T)= -0.21861989476D+03

 Unable to determine electronic state:  an orbital has unidentified symmetry.
 Alpha  occ. eigenvalues --  -15.42281 -15.42281 -15.41859 -15.41859  -1.23832
 Alpha  occ. eigenvalues --   -1.23829  -0.56107  -0.56031  -0.42672  -0.42511
 Alpha  occ. eigenvalues --   -0.40539  -0.40475  -0.38309  -0.38306   0.13283
 Alpha virt. eigenvalues --    0.22219   0.37955   0.38019   0.57541   0.62706
 Alpha virt. eigenvalues --    0.73846   0.75417   0.75519   0.75709   0.75776
 Alpha virt. eigenvalues --    0.76979   0.88275   0.88349   0.90677   0.91001

 Mulliken charges and spin densities:
               1          2
     1  N   -0.261316   0.245339
     2  N   -0.238684   0.254661
     3  N   -0.238684   0.254661
     4  N   -0.261316   0.245339
 Sum of Mulliken charges =  -1.00000   1.00000

 Dipole moment (field-independent basis, Debye):
    X=             -0.0000    Y=              0.0000    Z=             -0.0000  Tot=              0.0000
 Quadrupole moment (field-independent basis, Debye-Ang):
   XX=            -24.2509   YY=            -22.4804   ZZ=            -75.1864
   XY=              0.0000   XZ=              0.0000   YZ=             -0.0000

 5\PMP2-0=-218.589853\MP4SDQ=-218.5850059\CCSD=-218.581725\CCSD(T)=-218
 Normal termination of Gaussian 16 at Tue Feb 13 21:08:07 2024.
