 Gaussian 16, Revision A.03,
 Gaussian 16:  ES64L-G16RevA.03 25-Dec-2016

 -----------------------------------------------
 #p ROCCSD(T,MaxCyc=200)/cc-pVTZ SCF(MaxCyc=200)
 -----------------------------------------------

 --------
 N2_N2_48
 --------
 Symbolic Z-matrix:
 Charge = -1 Multiplicity = 2

                         Standard orientation:
 ---------------------------------------------------------------------
 Center     Atomic      Atomic             Coordinates (Angstroms)
 Number     Number       Type             X           Y           Z
 ---------------------------------------------------------------------
      1          7           0        0.000000    0.000000    1.910000
      2          7           0        0.000000    0.000000    0.820000
      3          7           0        0.000000    0.000000   -0.820000
      4          7           0        0.000000    0.000000   -1.910000
 ---------------------------------------------------------------------

 SCF Done:  E(ROHF) =  -217.631208680     A.U. after   12 cycles
 E2 =    -0.7878705042D+00 EUMP2 =    -0.21841907918412D+03
 CCSD(T)
 CCSD(T)= -0.21845084182D+03

 Unable to determine electronic state:  an orbital has unidentified symmetry.
 Alpha  occ. eigenvalues --  -15.34587 -15.34587 -15.33858 -15.33851  -1.18748
 Alpha  occ. eigenvalues --   -1.16915  -0.68231  -0.45216  -0.40563  -0.39933
 Alpha  occ. eigenvalues --   -0.34950  -0.34331  -0.30213  -0.12142   0.06975
 Alpha virt. eigenvalues --    0.37744   0.41293   0.50605   0.63374   0.64963
 Alpha virt. eigenvalues --    0.78284   0.78434   0.83635   0.85114   0.85658
 Alpha virt. eigenvalues --    0.91107   0.96887   0.99224   1.05449   1.11589

 Mulliken charges and spin densities:
               1          2
     1  N   -0.150362   0.244812
     2  N   -0.349638   0.255188
     3  N   -0.349638   0.255188
     4  N   -0.150362   0.244812
 Sum of Mulliken charges =  -1.00000   1.00000

 Dipole moment (field-independent basis, Debye):
    X=             -0.0000    Y=             -0.0000    Z=              0.0000  Tot=              0.0000
 Quadrupole moment (field-independent basis, Debye-Ang):
   XX=            -22.5444   YY=            -24.3252   ZZ=            -41.9350
   XY=              0.0000   XZ=              0.0000   YZ=             -0.0000

 087\PMP2-0=-218.4190792\MP4SDQ=-218.4148018\CCSD=-218.4099673\CCSD(T)=
 Normal termination of Gaussian 16 at Tue Feb 13 13:41:31 2024.
