 Gaussian 16, Revision A.03,
 Gaussian 16:  ES64L-G16RevA.03 25-Dec-2016

 -----------------------------------------------
 #p ROCCSD(T,MaxCyc=200)/cc-pVTZ SCF(MaxCyc=200)
 -----------------------------------------------

 ---------
 N2_N2_115
 ---------
 Symbolic Z-matrix:
 Charge = -1 Multiplicity = 2

                         Standard orientation:
 ---------------------------------------------------------------------
 Center     Atomic      Atomic             Coordinates (Angstroms)
 Number     Number       Type             X           Y           Z
 ---------------------------------------------------------------------
      1          7           0        0.578060   -2.110560    0.000000
      2          7           0       -0.192687   -1.339813    0.000000
      3          7           0       -0.192687    1.180187    0.000000
      4          7           0       -0.192687    2.270186    0.000000
 ---------------------------------------------------------------------

 SCF Done:  E(ROHF) =  -217.825740888     A.U. after   18 cycles
 E2 =    -0.7692744025D+00 EUMP2 =    -0.21859501529068D+03
 CCSD(T)
 CCSD(T)= -0.21862847608D+03

 The electronic state is 2-A".
 Alpha  occ. eigenvalues --  -15.40884 -15.39883 -15.38087 -15.36865  -1.22076
 Alpha  occ. eigenvalues --   -1.19462  -0.55406  -0.50987  -0.40398  -0.39862
 Alpha  occ. eigenvalues --   -0.38306  -0.36584  -0.35149  -0.32707   0.11459
 Alpha virt. eigenvalues --    0.31041   0.39707   0.43139   0.64305   0.65482
 Alpha virt. eigenvalues --    0.74625   0.75548   0.80674   0.81008   0.83683
 Alpha virt. eigenvalues --    0.87114   0.89704   0.91500   0.99991   1.01398

 Mulliken charges and spin densities:
               1          2
     1  N   -0.289169   0.259067
     2  N   -0.257844   0.288100
     3  N   -0.209354   0.246276
     4  N   -0.243633   0.206557
 Sum of Mulliken charges =  -1.00000   1.00000

 Dipole moment (field-independent basis, Debye):
    X=             -0.2281    Y=              0.7164    Z=             -0.0000  Tot=              0.7518
 Quadrupole moment (field-independent basis, Debye-Ang):
   XX=            -24.4615   YY=            -43.7947   ZZ=            -24.4549
   XY=              3.5695   XZ=              0.0000   YZ=              0.0000

 32406\CCSD=-218.5899229\CCSD(T)=-218.6284761\RMSD=3.680e-09\PG=CS [SG(
 Normal termination of Gaussian 16 at Tue Feb 13 15:23:50 2024.
