 Gaussian 16, Revision A.03,
 Gaussian 16:  ES64L-G16RevA.03 25-Dec-2016

 -----------------------------------------------
 #p ROCCSD(T,MaxCyc=200)/cc-pVTZ SCF(MaxCyc=200)
 -----------------------------------------------

 --------
 N2_N2_74
 --------
 Symbolic Z-matrix:
 Charge = -1 Multiplicity = 2

                         Standard orientation:
 ---------------------------------------------------------------------
 Center     Atomic      Atomic             Coordinates (Angstroms)
 Number     Number       Type             X           Y           Z
 ---------------------------------------------------------------------
      1          7           0       -0.817500   -1.252500    0.000000
      2          7           0        0.272500   -1.252500    0.000000
      3          7           0        0.272500    0.707500    0.000000
      4          7           0        0.272500    1.797500    0.000000
 ---------------------------------------------------------------------

 SCF Done:  E(ROHF) =  -217.776593986     A.U. after   19 cycles
 E2 =    -0.7744986044D+00 EUMP2 =    -0.21855109259040D+03
 CCSD(T)
 CCSD(T)= -0.21858656056D+03

 The electronic state is 2-A'.
 Alpha  occ. eigenvalues --  -15.42279 -15.40518 -15.30364 -15.29903  -1.22984
 Alpha  occ. eigenvalues --   -1.13884  -0.56993  -0.51795  -0.39965  -0.38785
 Alpha  occ. eigenvalues --   -0.37572  -0.35559  -0.28492  -0.23340   0.07727
 Alpha virt. eigenvalues --    0.39042   0.39666   0.46531   0.61057   0.67439
 Alpha virt. eigenvalues --    0.74217   0.76196   0.77271   0.83819   0.85850
 Alpha virt. eigenvalues --    0.93826   0.94650   0.96670   1.01330   1.03057

 Mulliken charges and spin densities:
               1          2
     1  N   -0.176884   0.073971
     2  N   -0.065422   0.125729
     3  N   -0.403719   0.400540
     4  N   -0.353975   0.399760
 Sum of Mulliken charges =  -1.00000   1.00000

 Dipole moment (field-independent basis, Debye):
    X=             -0.3053    Y=             -2.7947    Z=              0.0000  Tot=              2.8113
 Quadrupole moment (field-independent basis, Debye-Ang):
   XX=            -26.7070   YY=            -37.2438   ZZ=            -22.4531
   XY=             -2.1906   XZ=              0.0000   YZ=              0.0000

 CCSD(T)=-218.5865606\RMSD=2.772e-09\PG=CS [SG(N4)]\\@
 Normal termination of Gaussian 16 at Tue Feb 13 14:27:37 2024.
