 Gaussian 16, Revision A.03,
 Gaussian 16:  ES64L-G16RevA.03 25-Dec-2016

 -----------------------------------------------
 #p ROCCSD(T,MaxCyc=200)/cc-pVTZ SCF(MaxCyc=200)
 -----------------------------------------------

 ---------
 N2_N2_169
 ---------
 Symbolic Z-matrix:
 Charge = -1 Multiplicity = 2

                         Standard orientation:
 ---------------------------------------------------------------------
 Center     Atomic      Atomic             Coordinates (Angstroms)
 Number     Number       Type             X           Y           Z
 ---------------------------------------------------------------------
      1          7           0        0.578060   -2.470560    0.000000
      2          7           0       -0.192687   -1.699813   -0.000000
      3          7           0       -0.192687    1.540187   -0.000000
      4          7           0       -0.192687    2.630186   -0.000000
 ---------------------------------------------------------------------

 SCF Done:  E(ROHF) =  -217.825202754     A.U. after   18 cycles
 E2 =    -0.7690780595D+00 EUMP2 =    -0.21859428081359D+03
 CCSD(T)
 CCSD(T)= -0.21862639164D+03

 The electronic state is 2-A".
 Alpha  occ. eigenvalues --  -15.41144 -15.40401 -15.40238 -15.39472  -1.22470
 Alpha  occ. eigenvalues --   -1.21598  -0.54805  -0.53559  -0.41073  -0.40281
 Alpha  occ. eigenvalues --   -0.39396  -0.37894  -0.36924  -0.35922   0.12636
 Alpha virt. eigenvalues --    0.26984   0.39264   0.40475   0.61428   0.64793
 Alpha virt. eigenvalues --    0.73047   0.75217   0.75673   0.78401   0.79248
 Alpha virt. eigenvalues --    0.85814   0.89420   0.89868   0.92613   0.96833

 Mulliken charges and spin densities:
               1          2
     1  N   -0.267012   0.246194
     2  N   -0.245539   0.266213
     3  N   -0.242000   0.256107
     4  N   -0.245449   0.231486
 Sum of Mulliken charges =  -1.00000   1.00000

 Dipole moment (field-independent basis, Debye):
    X=             -0.1219    Y=              0.1968    Z=             -0.0000  Tot=              0.2315
 Quadrupole moment (field-independent basis, Debye-Ang):
   XX=            -24.3311   YY=            -50.0793   ZZ=            -24.3695
   XY=              3.7956   XZ=             -0.0000   YZ=              0.0000

 14676\CCSD=-218.5881052\CCSD(T)=-218.6263916\RMSD=1.978e-09\PG=CS [SG(
 Normal termination of Gaussian 16 at Tue Feb 13 16:46:17 2024.
