 Gaussian 16, Revision A.03,
 Gaussian 16:  ES64L-G16RevA.03 25-Dec-2016

 -----------------------------------------------
 #p ROCCSD(T,MaxCyc=200)/cc-pVTZ SCF(MaxCyc=200)
 -----------------------------------------------

 ---------
 N2_N2_295
 ---------
 Symbolic Z-matrix:
 Charge = -1 Multiplicity = 2

                         Standard orientation:
 ---------------------------------------------------------------------
 Center     Atomic      Atomic             Coordinates (Angstroms)
 Number     Number       Type             X           Y           Z
 ---------------------------------------------------------------------
      1          7           0        0.578060   -3.310560    0.000000
      2          7           0       -0.192687   -2.539813    0.000000
      3          7           0       -0.192687    2.380186   -0.000000
      4          7           0       -0.192687    3.470187   -0.000000
 ---------------------------------------------------------------------

 SCF Done:  E(ROHF) =  -217.819859699     A.U. after   15 cycles
 E2 =    -0.7702440377D+00 EUMP2 =    -0.21859010373650D+03
 CCSD(T)
 CCSD(T)= -0.21861779023D+03

 The electronic state is 2-A".
 Alpha  occ. eigenvalues --  -15.42315 -15.42040 -15.41887 -15.41634  -1.23848
 Alpha  occ. eigenvalues --   -1.23589  -0.56080  -0.55870  -0.42601  -0.42366
 Alpha  occ. eigenvalues --   -0.40524  -0.40316  -0.38322  -0.38051   0.13250
 Alpha virt. eigenvalues --    0.22442   0.37983   0.38200   0.58424   0.61955
 Alpha virt. eigenvalues --    0.74010   0.75461   0.75662   0.75692   0.75803
 Alpha virt. eigenvalues --    0.76922   0.88294   0.88578   0.90725   0.91123

 Mulliken charges and spin densities:
               1          2
     1  N   -0.263841   0.247831
     2  N   -0.239190   0.255220
     3  N   -0.236686   0.253261
     4  N   -0.260284   0.243688
 Sum of Mulliken charges =  -1.00000   1.00000

 Dipole moment (field-independent basis, Debye):
    X=             -0.0598    Y=              0.0498    Z=             -0.0000  Tot=              0.0779
 Quadrupole moment (field-independent basis, Debye-Ang):
   XX=            -24.2450   YY=            -69.9412   ZZ=            -24.2504
   XY=              4.4798   XZ=             -0.0000   YZ=              0.0000

 53491\CCSD=-218.5849333\CCSD(T)=-218.6177902\RMSD=5.036e-09\PG=CS [SG(
 Normal termination of Gaussian 16 at Tue Feb 13 20:50:01 2024.
