 Gaussian 16, Revision A.03,
 Gaussian 16:  ES64L-G16RevA.03 25-Dec-2016

 -----------------------------------------------
 #p ROCCSD(T,MaxCyc=200)/cc-pVTZ SCF(MaxCyc=200)
 -----------------------------------------------

 ---------
 N2_N2_267
 ---------
 Symbolic Z-matrix:
 Charge = -1 Multiplicity = 2

                         Standard orientation:
 ---------------------------------------------------------------------
 Center     Atomic      Atomic             Coordinates (Angstroms)
 Number     Number       Type             X           Y           Z
 ---------------------------------------------------------------------
      1          7           0        0.000000    0.000000    3.370000
      2          7           0        0.000000    0.000000    2.280000
      3          7           0        0.000000    0.000000   -2.280000
      4          7           0        0.000000    0.000000   -3.370000
 ---------------------------------------------------------------------

 SCF Done:  E(ROHF) =  -217.819835592     A.U. after   11 cycles
 E2 =    -0.7700875682D+00 EUMP2 =    -0.21858992316059D+03
 CCSD(T)
 CCSD(T)= -0.21862030059D+03

 Unable to determine electronic state:  an orbital has unidentified symmetry.
 Alpha  occ. eigenvalues --  -15.41950 -15.41950 -15.41497 -15.41497  -1.23488
 Alpha  occ. eigenvalues --   -1.23484  -0.55770  -0.55635  -0.42340  -0.42134
 Alpha  occ. eigenvalues --   -0.40213  -0.40061  -0.37966  -0.37958   0.13251
 Alpha virt. eigenvalues --    0.23000   0.38251   0.38435   0.55688   0.64469
 Alpha virt. eigenvalues --    0.73082   0.75681   0.75928   0.75975   0.76181
 Alpha virt. eigenvalues --    0.80502   0.88574   0.88842   0.90742   0.91687

 Mulliken charges and spin densities:
               1          2
     1  N   -0.260805   0.244486
     2  N   -0.239195   0.255514
     3  N   -0.239195   0.255514
     4  N   -0.260805   0.244486
 Sum of Mulliken charges =  -1.00000   1.00000

 Dipole moment (field-independent basis, Debye):
    X=             -0.0000    Y=              0.0000    Z=              0.0000  Tot=              0.0000
 Quadrupole moment (field-independent basis, Debye-Ang):
   XX=            -22.4850   YY=            -24.2627   ZZ=            -69.1152
   XY=              0.0000   XZ=              0.0000   YZ=             -0.0000

 8356\PMP2-0=-218.5899232\MP4SDQ=-218.585417\CCSD=-218.5821063\CCSD(T)=
 Normal termination of Gaussian 16 at Tue Feb 13 19:30:29 2024.
