 Gaussian 16, Revision A.03,
 Gaussian 16:  ES64L-G16RevA.03 25-Dec-2016

 -----------------------------------------------
 #p ROCCSD(T,MaxCyc=200)/cc-pVTZ SCF(MaxCyc=200)
 -----------------------------------------------

 ---------
 N2_N2_173
 ---------
 Symbolic Z-matrix:
 Charge = -1 Multiplicity = 2

                         Standard orientation:
 ---------------------------------------------------------------------
 Center     Atomic      Atomic             Coordinates (Angstroms)
 Number     Number       Type             X           Y           Z
 ---------------------------------------------------------------------
      1          7           0       -0.817500   -1.912500    0.000000
      2          7           0        0.272500   -1.912500    0.000000
      3          7           0        0.272500    1.367500    0.000000
      4          7           0        0.272500    2.457500    0.000000
 ---------------------------------------------------------------------

 SCF Done:  E(ROHF) =  -217.830011630     A.U. after   16 cycles
 E2 =    -0.7686511162D+00 EUMP2 =    -0.21859866274615D+03
 CCSD(T)
 CCSD(T)= -0.21863130935D+03

 The electronic state is 2-A'.
 Alpha  occ. eigenvalues --  -15.41314 -15.40383 -15.39497 -15.39144  -1.22466
 Alpha  occ. eigenvalues --   -1.20950  -0.54450  -0.53402  -0.40776  -0.40304
 Alpha  occ. eigenvalues --   -0.38673  -0.37384  -0.36914  -0.35511   0.12152
 Alpha virt. eigenvalues --    0.28466   0.39502   0.40625   0.61058   0.63470
 Alpha virt. eigenvalues --    0.72026   0.75889   0.76148   0.77871   0.79480
 Alpha virt. eigenvalues --    0.83500   0.88699   0.89803   0.94876   0.96737

 Mulliken charges and spin densities:
               1          2
     1  N   -0.280818   0.258829
     2  N   -0.242514   0.265055
     3  N   -0.231048   0.254498
     4  N   -0.245620   0.221618
 Sum of Mulliken charges =  -1.00000   1.00000

 Dipole moment (field-independent basis, Debye):
    X=              0.1158    Y=              0.2745    Z=              0.0000  Tot=              0.2979
 Quadrupole moment (field-independent basis, Debye-Ang):
   XX=            -27.0948   YY=            -45.5732   ZZ=            -22.5147
   XY=             -2.7165   XZ=              0.0000   YZ=              0.0000

 161\CCSD(T)=-218.6313094\RMSD=5.189e-09\PG=CS [SG(N4)]\\@
 Normal termination of Gaussian 16 at Tue Feb 13 16:51:50 2024.
