 Gaussian 16, Revision A.03,
 Gaussian 16:  ES64L-G16RevA.03 25-Dec-2016

 -----------------------------------------------
 #p ROCCSD(T,MaxCyc=200)/cc-pVTZ SCF(MaxCyc=200)
 -----------------------------------------------

 --------
 N2_N2_90
 --------
 Symbolic Z-matrix:
 Charge = -1 Multiplicity = 2

                         Standard orientation:
 ---------------------------------------------------------------------
 Center     Atomic      Atomic             Coordinates (Angstroms)
 Number     Number       Type             X           Y           Z
 ---------------------------------------------------------------------
      1          7           0        0.000000    0.000000    2.190000
      2          7           0        0.000000    0.000000    1.100000
      3          7           0        0.000000    0.000000   -1.100000
      4          7           0        0.000000    0.000000   -2.190000
 ---------------------------------------------------------------------

 SCF Done:  E(ROHF) =  -217.807409358     A.U. after   12 cycles
 E2 =    -0.7700771316D+00 EUMP2 =    -0.21857748648985D+03
 CCSD(T)
 CCSD(T)= -0.21861074296D+03

 Unable to determine electronic state:  an orbital has unidentified symmetry.
 Alpha  occ. eigenvalues --  -15.38101 -15.38100 -15.37319 -15.37318  -1.20122
 Alpha  occ. eigenvalues --   -1.19721  -0.57107  -0.49183  -0.40242  -0.39566
 Alpha  occ. eigenvalues --   -0.37460  -0.35069  -0.33816  -0.29812   0.10415
 Alpha virt. eigenvalues --    0.34116   0.38742   0.45337   0.63324   0.65848
 Alpha virt. eigenvalues --    0.76500   0.76755   0.81449   0.82217   0.89884
 Alpha virt. eigenvalues --    0.90829   0.92628   0.95153   0.97177   1.06787

 Mulliken charges and spin densities:
               1          2
     1  N   -0.253085   0.226756
     2  N   -0.246915   0.273244
     3  N   -0.246915   0.273244
     4  N   -0.253085   0.226756
 Sum of Mulliken charges =  -1.00000   1.00000

 Dipole moment (field-independent basis, Debye):
    X=             -0.0000    Y=              0.0000    Z=             -0.0000  Tot=              0.0000
 Quadrupole moment (field-independent basis, Debye-Ang):
   XX=            -22.5723   YY=            -24.5201   ZZ=            -44.9314
   XY=              0.0000   XZ=              0.0000   YZ=             -0.0000

 94\PMP2-0=-218.5774865\MP4SDQ=-218.5760492\CCSD=-218.5721937\CCSD(T)=-
 Normal termination of Gaussian 16 at Tue Feb 13 14:46:22 2024.
