 Gaussian 16, Revision A.03,
 Gaussian 16:  ES64L-G16RevA.03 25-Dec-2016

 -----------------------------------------------
 #p ROCCSD(T,MaxCyc=200)/cc-pVTZ SCF(MaxCyc=200)
 -----------------------------------------------

 --------
 N2_N2_49
 --------
 Symbolic Z-matrix:
 Charge = -1 Multiplicity = 2

                         Standard orientation:
 ---------------------------------------------------------------------
 Center     Atomic      Atomic             Coordinates (Angstroms)
 Number     Number       Type             X           Y           Z
 ---------------------------------------------------------------------
      1          7           0        0.578060   -1.670560   -0.000000
      2          7           0       -0.192687   -0.899814   -0.000000
      3          7           0       -0.192687    0.740186    0.000000
      4          7           0       -0.192687    1.830187    0.000000
 ---------------------------------------------------------------------

 SCF Done:  E(ROHF) =  -217.703005252     A.U. after   18 cycles
 E2 =    -0.7805703975D+00 EUMP2 =    -0.21848357564991D+03
 CCSD(T)
 CCSD(T)= -0.21851993490D+03

 The electronic state is 2-A".
 Alpha  occ. eigenvalues --  -15.42609 -15.36239 -15.32380 -15.31965  -1.21748
 Alpha  occ. eigenvalues --   -1.15846  -0.68372  -0.46097  -0.41442  -0.39924
 Alpha  occ. eigenvalues --   -0.38597  -0.35118  -0.30016  -0.15077   0.03651
 Alpha virt. eigenvalues --    0.41539   0.42849   0.47264   0.65159   0.66490
 Alpha virt. eigenvalues --    0.77326   0.77486   0.80623   0.84463   0.86722
 Alpha virt. eigenvalues --    0.90179   0.93064   0.96565   1.03711   1.05484

 Mulliken charges and spin densities:
               1          2
     1  N   -0.314489   0.071738
     2  N   -0.011095   0.052928
     3  N   -0.377574   0.392613
     4  N   -0.296843   0.482721
 Sum of Mulliken charges =  -1.00000   1.00000

 Dipole moment (field-independent basis, Debye):
    X=             -0.1268    Y=             -1.5197    Z=             -0.0000  Tot=              1.5249
 Quadrupole moment (field-independent basis, Debye-Ang):
   XX=            -24.6915   YY=            -40.0191   ZZ=            -23.8452
   XY=              3.0621   XZ=              0.0000   YZ=             -0.0000

 2612\CCSD=-218.4779168\CCSD(T)=-218.5199349\RMSD=5.587e-09\PG=CS [SG(N
 Normal termination of Gaussian 16 at Tue Feb 13 13:43:36 2024.
