 Gaussian 16, Revision A.03,
 Gaussian 16:  ES64L-G16RevA.03 25-Dec-2016

 -----------------------------------------------
 #p ROCCSD(T,MaxCyc=200)/cc-pVTZ SCF(MaxCyc=200)
 -----------------------------------------------

 ---------
 N2_N2_197
 ---------
 Symbolic Z-matrix:
 Charge = -1 Multiplicity = 2

                         Standard orientation:
 ---------------------------------------------------------------------
 Center     Atomic      Atomic             Coordinates (Angstroms)
 Number     Number       Type             X           Y           Z
 ---------------------------------------------------------------------
      1          7           0       -0.817500   -2.072500    0.000000
      2          7           0        0.272500   -2.072500    0.000000
      3          7           0        0.272500    1.527500    0.000000
      4          7           0        0.272500    2.617500    0.000000
 ---------------------------------------------------------------------

 SCF Done:  E(ROHF) =  -217.826971802     A.U. after   17 cycles
 E2 =    -0.7688824066D+00 EUMP2 =    -0.21859585420862D+03
 CCSD(T)
 CCSD(T)= -0.21862790933D+03

 The electronic state is 2-A'.
 Alpha  occ. eigenvalues --  -15.41419 -15.40651 -15.40154 -15.39809  -1.22690
 Alpha  occ. eigenvalues --   -1.21621  -0.54721  -0.54029  -0.41138  -0.40559
 Alpha  occ. eigenvalues --   -0.39159  -0.38260  -0.37145  -0.36164   0.12535
 Alpha virt. eigenvalues --    0.26957   0.39253   0.40000   0.59883   0.62172
 Alpha virt. eigenvalues --    0.71512   0.76037   0.76150   0.77198   0.78493
 Alpha virt. eigenvalues --    0.83773   0.88853   0.89422   0.94517   0.95885

 Mulliken charges and spin densities:
               1          2
     1  N   -0.270697   0.255732
     2  N   -0.244411   0.260049
     3  N   -0.234422   0.254966
     4  N   -0.250471   0.229254
 Sum of Mulliken charges =  -1.00000   1.00000

 Dipole moment (field-independent basis, Debye):
    X=              0.0737    Y=              0.1653    Z=              0.0000  Tot=              0.1810
 Quadrupole moment (field-independent basis, Debye-Ang):
   XX=            -27.0268   YY=            -48.6068   ZZ=            -22.5053
   XY=             -2.9253   XZ=              0.0000   YZ=              0.0000

 2\CCSD(T)=-218.6279093\RMSD=3.851e-09\PG=CS [SG(N4)]\\@
 Normal termination of Gaussian 16 at Tue Feb 13 17:27:16 2024.
