 Gaussian 16, Revision A.03,
 Gaussian 16:  ES64L-G16RevA.03 25-Dec-2016

 -----------------------------------------------
 #p ROCCSD(T,MaxCyc=200)/cc-pVTZ SCF(MaxCyc=200)
 -----------------------------------------------

 ---------
 N2_N2_146
 ---------
 Symbolic Z-matrix:
 Charge = -1 Multiplicity = 2

                         Standard orientation:
 ---------------------------------------------------------------------
 Center     Atomic      Atomic             Coordinates (Angstroms)
 Number     Number       Type             X           Y           Z
 ---------------------------------------------------------------------
      1          7           0       -0.817500   -1.732500    0.000000
      2          7           0        0.272500   -1.732500    0.000000
      3          7           0        0.272500    1.187500    0.000000
      4          7           0        0.272500    2.277500    0.000000
 ---------------------------------------------------------------------

 SCF Done:  E(ROHF) =  -217.832891434     A.U. after   17 cycles
 E2 =    -0.7686742903D+00 EUMP2 =    -0.21860156572410D+03
 CCSD(T)
 CCSD(T)= -0.21863489144D+03

 The electronic state is 2-A'.
 Alpha  occ. eigenvalues --  -15.41238 -15.40106 -15.38404 -15.38021  -1.22257
 Alpha  occ. eigenvalues --   -1.19898  -0.54276  -0.52458  -0.40445  -0.40308
 Alpha  occ. eigenvalues --   -0.37768  -0.36706  -0.35849  -0.34484   0.11547
 Alpha virt. eigenvalues --    0.30539   0.39735   0.41571   0.62017   0.64870
 Alpha virt. eigenvalues --    0.75324   0.75620   0.76723   0.79112   0.80808
 Alpha virt. eigenvalues --    0.82670   0.89004   0.90959   0.95515   0.97750

 Mulliken charges and spin densities:
               1          2
     1  N   -0.296844   0.264741
     2  N   -0.243575   0.276320
     3  N   -0.216318   0.250135
     4  N   -0.243263   0.208804
 Sum of Mulliken charges =  -1.00000   1.00000

 Dipole moment (field-independent basis, Debye):
    X=              0.1920    Y=              0.4929    Z=              0.0000  Tot=              0.5290
 Quadrupole moment (field-independent basis, Debye-Ang):
   XX=            -27.1784   YY=            -42.5389   ZZ=            -22.5259
   XY=             -2.4759   XZ=              0.0000   YZ=              0.0000

 945\CCSD(T)=-218.6348914\RMSD=6.897e-09\PG=CS [SG(N4)]\\@
 Normal termination of Gaussian 16 at Tue Feb 13 16:12:30 2024.
