 Gaussian 16, Revision A.03,
 Gaussian 16:  ES64L-G16RevA.03 25-Dec-2016

 -----------------------------------------------
 #p ROCCSD(T,MaxCyc=200)/cc-pVTZ SCF(MaxCyc=200)
 -----------------------------------------------

 ---------
 N2_N2_148
 ---------
 Symbolic Z-matrix:
 Charge = -1 Multiplicity = 2

                         Standard orientation:
 ---------------------------------------------------------------------
 Center     Atomic      Atomic             Coordinates (Angstroms)
 Number     Number       Type             X           Y           Z
 ---------------------------------------------------------------------
      1          7           0        0.578060   -2.330560    0.000000
      2          7           0       -0.192687   -1.559813    0.000000
      3          7           0       -0.192687    1.400187   -0.000000
      4          7           0       -0.192687    2.490186   -0.000000
 ---------------------------------------------------------------------

 SCF Done:  E(ROHF) =  -217.826909295     A.U. after   17 cycles
 E2 =    -0.7688717642D+00 EUMP2 =    -0.21859578105919D+03
 CCSD(T)
 CCSD(T)= -0.21862838072D+03

 The electronic state is 2-A".
 Alpha  occ. eigenvalues --  -15.40972 -15.40116 -15.39685 -15.38759  -1.22231
 Alpha  occ. eigenvalues --   -1.20995  -0.54767  -0.52780  -0.40765  -0.39670
 Alpha  occ. eigenvalues --   -0.39412  -0.37091  -0.36654  -0.35139   0.12304
 Alpha virt. eigenvalues --    0.28329   0.39490   0.41292   0.63340   0.65008
 Alpha virt. eigenvalues --    0.74826   0.75471   0.75493   0.79197   0.80419
 Alpha virt. eigenvalues --    0.86294   0.89624   0.90077   0.94357   0.98450

 Mulliken charges and spin densities:
               1          2
     1  N   -0.270825   0.247092
     2  N   -0.248259   0.271846
     3  N   -0.235630   0.255796
     4  N   -0.245287   0.225267
 Sum of Mulliken charges =  -1.00000   1.00000

 Dipole moment (field-independent basis, Debye):
    X=             -0.1460    Y=              0.3001    Z=             -0.0000  Tot=              0.3337
 Quadrupole moment (field-independent basis, Debye-Ang):
   XX=            -24.3646   YY=            -47.4402   ZZ=            -24.4077
   XY=              3.6911   XZ=             -0.0000   YZ=              0.0000

 4252\CCSD=-218.5900312\CCSD(T)=-218.6283807\RMSD=3.578e-09\PG=CS [SG(N
 Normal termination of Gaussian 16 at Tue Feb 13 16:15:26 2024.
