 Gaussian 16, Revision A.03,
 Gaussian 16:  ES64L-G16RevA.03 25-Dec-2016

 -----------------------------------------------
 #p ROCCSD(T,MaxCyc=200)/cc-pVTZ SCF(MaxCyc=200)
 -----------------------------------------------

 ---------
 N2_N2_280
 ---------
 Symbolic Z-matrix:
 Charge = -1 Multiplicity = 2

                         Standard orientation:
 ---------------------------------------------------------------------
 Center     Atomic      Atomic             Coordinates (Angstroms)
 Number     Number       Type             X           Y           Z
 ---------------------------------------------------------------------
      1          7           0        0.578060   -3.210560    0.000000
      2          7           0       -0.192687   -2.439813    0.000000
      3          7           0       -0.192687    2.280187   -0.000000
      4          7           0       -0.192687    3.370186   -0.000000
 ---------------------------------------------------------------------

 SCF Done:  E(ROHF) =  -217.819998342     A.U. after   15 cycles
 E2 =    -0.7701409386D+00 EUMP2 =    -0.21859013928020D+03
 CCSD(T)
 CCSD(T)= -0.21861863108D+03

 The electronic state is 2-A".
 Alpha  occ. eigenvalues --  -15.42177 -15.41877 -15.41736 -15.41459  -1.23703
 Alpha  occ. eigenvalues --   -1.23420  -0.55929  -0.55694  -0.42453  -0.42194
 Alpha  occ. eigenvalues --   -0.40373  -0.40139  -0.38176  -0.37880   0.13235
 Alpha virt. eigenvalues --    0.22790   0.38131   0.38352   0.57951   0.62559
 Alpha virt. eigenvalues --    0.73705   0.75588   0.75784   0.75869   0.76011
 Alpha virt. eigenvalues --    0.77863   0.88426   0.88776   0.90775   0.91406

 Mulliken charges and spin densities:
               1          2
     1  N   -0.264650   0.247690
     2  N   -0.238669   0.255669
     3  N   -0.236283   0.253470
     4  N   -0.260398   0.243171
 Sum of Mulliken charges =  -1.00000   1.00000

 Dipole moment (field-independent basis, Debye):
    X=             -0.0643    Y=              0.0531    Z=             -0.0000  Tot=              0.0835
 Quadrupole moment (field-independent basis, Debye-Ang):
   XX=            -24.2501   YY=            -67.2277   ZZ=            -24.2549
   XY=              4.3968   XZ=             -0.0000   YZ=              0.0000

 38\CCSD=-218.5842608\CCSD(T)=-218.6186311\RMSD=6.137e-09\PG=CS [SG(N4)
 Normal termination of Gaussian 16 at Tue Feb 13 20:02:58 2024.
