 Gaussian 16, Revision A.03,
 Gaussian 16:  ES64L-G16RevA.03 25-Dec-2016

 -----------------------------------------------
 #p ROCCSD(T,MaxCyc=200)/cc-pVTZ SCF(MaxCyc=200)
 -----------------------------------------------

 ---------
 N2_N2_245
 ---------
 Symbolic Z-matrix:
 Charge = -1 Multiplicity = 2

                         Standard orientation:
 ---------------------------------------------------------------------
 Center     Atomic      Atomic             Coordinates (Angstroms)
 Number     Number       Type             X           Y           Z
 ---------------------------------------------------------------------
      1          7           0       -0.817500   -2.392500    0.000000
      2          7           0        0.272500   -2.392500    0.000000
      3          7           0        0.272500    1.847500    0.000000
      4          7           0        0.272500    2.937500    0.000000
 ---------------------------------------------------------------------

 SCF Done:  E(ROHF) =  -217.822588459     A.U. after   15 cycles
 E2 =    -0.7694469214D+00 EUMP2 =    -0.21859203538031D+03
 CCSD(T)
 CCSD(T)= -0.21862299883D+03

 The electronic state is 2-A'.
 Alpha  occ. eigenvalues --  -15.41763 -15.41210 -15.41005 -15.40660  -1.23195
 Alpha  occ. eigenvalues --   -1.22527  -0.55329  -0.54907  -0.41808  -0.41314
 Alpha  occ. eigenvalues --   -0.39798  -0.39309  -0.37661  -0.37048   0.12984
 Alpha virt. eigenvalues --    0.24701   0.38698   0.39129   0.59541   0.61080
 Alpha virt. eigenvalues --    0.72558   0.75799   0.76258   0.76262   0.77108
 Alpha virt. eigenvalues --    0.81761   0.88863   0.89880   0.91855   0.93963

 Mulliken charges and spin densities:
               1          2
     1  N   -0.260243   0.253438
     2  N   -0.248614   0.255828
     3  N   -0.232622   0.253270
     4  N   -0.258521   0.237464
 Sum of Mulliken charges =  -1.00000   1.00000

 Dipole moment (field-independent basis, Debye):
    X=              0.0387    Y=              0.0911    Z=              0.0000  Tot=              0.0989
 Quadrupole moment (field-independent basis, Debye-Ang):
   XX=            -26.9270   YY=            -55.4625   ZZ=            -22.4898
   XY=             -3.3183   XZ=              0.0000   YZ=              0.0000

 399\CCSD(T)=-218.6229988\RMSD=8.428e-09\PG=CS [SG(N4)]\\@
 Normal termination of Gaussian 16 at Tue Feb 13 18:46:40 2024.
