 Gaussian 16, Revision A.03,
 Gaussian 16:  ES64L-G16RevA.03 25-Dec-2016

 -----------------------------------------------
 #p ROCCSD(T,MaxCyc=200)/cc-pVTZ SCF(MaxCyc=200)
 -----------------------------------------------

 ---------
 N2_N2_180
 ---------
 Symbolic Z-matrix:
 Charge = -1 Multiplicity = 2

                         Standard orientation:
 ---------------------------------------------------------------------
 Center     Atomic      Atomic             Coordinates (Angstroms)
 Number     Number       Type             X           Y           Z
 ---------------------------------------------------------------------
      1          7           0        0.000000    0.000000    2.790000
      2          7           0        0.000000    0.000000    1.700000
      3          7           0        0.000000    0.000000   -1.700000
      4          7           0        0.000000    0.000000   -2.790000
 ---------------------------------------------------------------------

 SCF Done:  E(ROHF) =  -217.823807430     A.U. after   11 cycles
 E2 =    -0.7690474518D+00 EUMP2 =    -0.21859285488161D+03
 CCSD(T)
 CCSD(T)= -0.21862467156D+03

 Unable to determine electronic state:  an orbital has unidentified symmetry.
 Alpha  occ. eigenvalues --  -15.40912 -15.40911 -15.40227 -15.40227  -1.22332
 Alpha  occ. eigenvalues --   -1.22306  -0.54854  -0.53979  -0.41202  -0.40716
 Alpha  occ. eigenvalues --   -0.39454  -0.38182  -0.36835  -0.36742   0.12804
 Alpha virt. eigenvalues --    0.26303   0.38812   0.40332   0.60175   0.64972
 Alpha virt. eigenvalues --    0.72037   0.75817   0.76137   0.77834   0.78128
 Alpha virt. eigenvalues --    0.88849   0.89539   0.89638   0.92289   0.96534

 Mulliken charges and spin densities:
               1          2
     1  N   -0.248616   0.238724
     2  N   -0.251384   0.261276
     3  N   -0.251384   0.261276
     4  N   -0.248616   0.238724
 Sum of Mulliken charges =  -1.00000   1.00000

 Dipole moment (field-independent basis, Debye):
    X=             -0.0000    Y=             -0.0000    Z=              0.0000  Tot=              0.0000
 Quadrupole moment (field-independent basis, Debye-Ang):
   XX=            -22.5129   YY=            -24.3642   ZZ=            -55.3140
   XY=              0.0000   XZ=              0.0000   YZ=             -0.0000

 074\PMP2-0=-218.5928549\MP4SDQ=-218.5898261\CCSD=-218.5863723\CCSD(T)=
 Normal termination of Gaussian 16 at Tue Feb 13 17:01:53 2024.
