 Gaussian 16, Revision A.03,
 Gaussian 16:  ES64L-G16RevA.03 25-Dec-2016

 -----------------------------------------------
 #p ROCCSD(T,MaxCyc=200)/cc-pVTZ SCF(MaxCyc=200)
 -----------------------------------------------

 ---------
 N2_N2_140
 ---------
 Symbolic Z-matrix:
 Charge = -1 Multiplicity = 2

                         Standard orientation:
 ---------------------------------------------------------------------
 Center     Atomic      Atomic             Coordinates (Angstroms)
 Number     Number       Type             X           Y           Z
 ---------------------------------------------------------------------
      1          7           0       -0.817500   -1.692500    0.000000
      2          7           0        0.272500   -1.692500    0.000000
      3          7           0        0.272500    1.147500    0.000000
      4          7           0        0.272500    2.237500    0.000000
 ---------------------------------------------------------------------

 SCF Done:  E(ROHF) =  -217.833149129     A.U. after   18 cycles
 E2 =    -0.7687632678D+00 EUMP2 =    -0.21860191239647D+03
 CCSD(T)
 CCSD(T)= -0.21863539155D+03

 The electronic state is 2-A'.
 Alpha  occ. eigenvalues --  -15.41233 -15.40061 -15.38080 -15.37688  -1.22228
 Alpha  occ. eigenvalues --   -1.19603  -0.54282  -0.52201  -0.40523  -0.40238
 Alpha  occ. eigenvalues --   -0.37501  -0.36679  -0.35391  -0.34194   0.11382
 Alpha virt. eigenvalues --    0.31059   0.39772   0.41830   0.62194   0.64944
 Alpha virt. eigenvalues --    0.75593   0.76185   0.77131   0.79740   0.81134
 Alpha virt. eigenvalues --    0.82449   0.89077   0.91425   0.95697   0.97969

 Mulliken charges and spin densities:
               1          2
     1  N   -0.301506   0.266638
     2  N   -0.244707   0.280320
     3  N   -0.210750   0.248005
     4  N   -0.243037   0.205036
 Sum of Mulliken charges =  -1.00000   1.00000

 Dipole moment (field-independent basis, Debye):
    X=              0.2155    Y=              0.5644    Z=              0.0000  Tot=              0.6041
 Quadrupole moment (field-independent basis, Debye-Ang):
   XX=            -27.1979   YY=            -41.9273   ZZ=            -22.5284
   XY=             -2.4240   XZ=              0.0000   YZ=              0.0000

 638\CCSD(T)=-218.6353916\RMSD=2.419e-09\PG=CS [SG(N4)]\\@
 Normal termination of Gaussian 16 at Tue Feb 13 16:03:07 2024.
