 Gaussian 16, Revision A.03,
 Gaussian 16:  ES64L-G16RevA.03 25-Dec-2016

 -----------------------------------------------
 #p ROCCSD(T,MaxCyc=200)/cc-pVTZ SCF(MaxCyc=200)
 -----------------------------------------------

 ---------
 N2_N2_234
 ---------
 Symbolic Z-matrix:
 Charge = -1 Multiplicity = 2

                         Standard orientation:
 ---------------------------------------------------------------------
 Center     Atomic      Atomic             Coordinates (Angstroms)
 Number     Number       Type             X           Y           Z
 ---------------------------------------------------------------------
      1          7           0        0.000000    0.000000    3.150000
      2          7           0        0.000000    0.000000    2.060000
      3          7           0        0.000000    0.000000   -2.060000
      4          7           0        0.000000    0.000000   -3.150000
 ---------------------------------------------------------------------

 SCF Done:  E(ROHF) =  -217.820623729     A.U. after   11 cycles
 E2 =    -0.7698166828D+00 EUMP2 =    -0.21859044041176D+03
 CCSD(T)
 CCSD(T)= -0.21862126438D+03

 Unable to determine electronic state:  an orbital has unidentified symmetry.
 Alpha  occ. eigenvalues --  -15.41590 -15.41590 -15.41083 -15.41083  -1.23100
 Alpha  occ. eigenvalues --   -1.23092  -0.55408  -0.55147  -0.41961  -0.41687
 Alpha  occ. eigenvalues --   -0.39882  -0.39535  -0.37581  -0.37561   0.13169
 Alpha virt. eigenvalues --    0.23981   0.38522   0.38979   0.54864   0.65499
 Alpha virt. eigenvalues --    0.72327   0.75879   0.76175   0.76477   0.76730
 Alpha virt. eigenvalues --    0.86169   0.88899   0.90523   0.90593   0.92859

 Mulliken charges and spin densities:
               1          2
     1  N   -0.256661   0.243179
     2  N   -0.243339   0.256821
     3  N   -0.243339   0.256821
     4  N   -0.256661   0.243179
 Sum of Mulliken charges =  -1.00000   1.00000

 Dipole moment (field-independent basis, Debye):
    X=             -0.0000    Y=             -0.0000    Z=              0.0000  Tot=              0.0000
 Quadrupole moment (field-independent basis, Debye-Ang):
   XX=            -24.2861   YY=            -22.4924   ZZ=            -63.5074
   XY=              0.0000   XZ=              0.0000   YZ=             -0.0000

 Normal termination of Gaussian 16 at Tue Feb 13 18:26:46 2024.
