 Gaussian 16, Revision A.03,
 Gaussian 16:  ES64L-G16RevA.03 25-Dec-2016

 -----------------------------------------------
 #p ROCCSD(T,MaxCyc=200)/cc-pVTZ SCF(MaxCyc=200)
 -----------------------------------------------

 --------
 N2_N2_97
 --------
 Symbolic Z-matrix:
 Charge = -1 Multiplicity = 2

                         Standard orientation:
 ---------------------------------------------------------------------
 Center     Atomic      Atomic             Coordinates (Angstroms)
 Number     Number       Type             X           Y           Z
 ---------------------------------------------------------------------
      1          7           0        0.578060   -1.990560    0.000000
      2          7           0       -0.192687   -1.219813    0.000000
      3          7           0       -0.192687    1.060186   -0.000000
      4          7           0       -0.192687    2.150187   -0.000000
 ---------------------------------------------------------------------

 SCF Done:  E(ROHF) =  -217.817671831     A.U. after   20 cycles
 E2 =    -0.7701529904D+00 EUMP2 =    -0.21858782482173D+03
 CCSD(T)
 CCSD(T)= -0.21862240507D+03

 The electronic state is 2-A".
 Alpha  occ. eigenvalues --  -15.41531 -15.40519 -15.35992 -15.34652  -1.22673
 Alpha  occ. eigenvalues --   -1.17706  -0.56719  -0.49592  -0.40556  -0.40430
 Alpha  occ. eigenvalues --   -0.37159  -0.37085  -0.33390  -0.29966   0.10697
 Alpha virt. eigenvalues --    0.32939   0.39350   0.44925   0.63436   0.66658
 Alpha virt. eigenvalues --    0.74674   0.75714   0.81739   0.82899   0.86109
 Alpha virt. eigenvalues --    0.88038   0.89279   0.92899   1.02968   1.03129

 Mulliken charges and spin densities:
               1          2
     1  N   -0.319168   0.290451
     2  N   -0.281437   0.311501
     3  N   -0.175421   0.219835
     4  N   -0.223974   0.178213
 Sum of Mulliken charges =  -1.00000   1.00000

 Dipole moment (field-independent basis, Debye):
    X=             -0.3493    Y=              1.4506    Z=             -0.0000  Tot=              1.4921
 Quadrupole moment (field-independent basis, Debye-Ang):
   XX=            -24.5898   YY=            -42.0871   ZZ=            -24.4489
   XY=              3.5724   XZ=             -0.0000   YZ=              0.0000

 71\CCSD=-218.5835628\CCSD(T)=-218.6224051\RMSD=7.703e-10\PG=CS [SG(N4)
 Normal termination of Gaussian 16 at Tue Feb 13 14:55:43 2024.
