 Gaussian 16, Revision A.03,
 Gaussian 16:  ES64L-G16RevA.03 25-Dec-2016

 -----------------------------------------------
 #p ROCCSD(T,MaxCyc=200)/cc-pVTZ SCF(MaxCyc=200)
 -----------------------------------------------

 ---------
 N2_N2_247
 ---------
 Symbolic Z-matrix:
 Charge = -1 Multiplicity = 2

                         Standard orientation:
 ---------------------------------------------------------------------
 Center     Atomic      Atomic             Coordinates (Angstroms)
 Number     Number       Type             X           Y           Z
 ---------------------------------------------------------------------
      1          7           0        0.578060   -2.990560    0.000000
      2          7           0       -0.192687   -2.219813    0.000000
      3          7           0       -0.192687    2.060187   -0.000000
      4          7           0       -0.192687    3.150186   -0.000000
 ---------------------------------------------------------------------

 SCF Done:  E(ROHF) =  -217.820619538     A.U. after   16 cycles
 E2 =    -0.7699032798D+00 EUMP2 =    -0.21859052281793D+03
 CCSD(T)
 CCSD(T)= -0.21862086020D+03

 The electronic state is 2-A".
 Alpha  occ. eigenvalues --  -15.41862 -15.41489 -15.41377 -15.41028  -1.23361
 Alpha  occ. eigenvalues --   -1.23007  -0.55575  -0.55250  -0.42096  -0.41767
 Alpha  occ. eigenvalues --   -0.40028  -0.39688  -0.37833  -0.37458   0.13172
 Alpha virt. eigenvalues --    0.23684   0.38465   0.38720   0.57020   0.63715
 Alpha virt. eigenvalues --    0.72869   0.75830   0.75942   0.76357   0.76587
 Alpha virt. eigenvalues --    0.80834   0.88706   0.89396   0.90709   0.92321

 Mulliken charges and spin densities:
               1          2
     1  N   -0.265807   0.247298
     2  N   -0.238396   0.257019
     3  N   -0.236775   0.254054
     4  N   -0.259022   0.241629
 Sum of Mulliken charges =  -1.00000   1.00000

 Dipole moment (field-independent basis, Debye):
    X=             -0.0761    Y=              0.0651    Z=              0.0000  Tot=              0.1001
 Quadrupole moment (field-independent basis, Debye-Ang):
   XX=            -24.2644   YY=            -61.5914   ZZ=            -24.2715
   XY=              4.2156   XZ=             -0.0000   YZ=              0.0000

 63039\CCSD=-218.5834282\CCSD(T)=-218.6208602\RMSD=2.721e-09\PG=CS [SG(
 Normal termination of Gaussian 16 at Tue Feb 13 18:50:09 2024.
