 Gaussian 16, Revision A.03,
 Gaussian 16:  ES64L-G16RevA.03 25-Dec-2016

 -----------------------------------------------
 #p ROCCSD(T,MaxCyc=200)/cc-pVTZ SCF(MaxCyc=200)
 -----------------------------------------------

 ---------
 N2_N2_128
 ---------
 Symbolic Z-matrix:
 Charge = -1 Multiplicity = 2

                         Standard orientation:
 ---------------------------------------------------------------------
 Center     Atomic      Atomic             Coordinates (Angstroms)
 Number     Number       Type             X           Y           Z
 ---------------------------------------------------------------------
      1          7           0       -0.817500   -1.612500    0.000000
      2          7           0        0.272500   -1.612500    0.000000
      3          7           0        0.272500    1.067500    0.000000
      4          7           0        0.272500    2.157500    0.000000
 ---------------------------------------------------------------------

 SCF Done:  E(ROHF) =  -217.832714175     A.U. after   18 cycles
 E2 =    -0.7690775302D+00 EUMP2 =    -0.21860179170559D+03
 CCSD(T)
 CCSD(T)= -0.21863560837D+03

 The electronic state is 2-A'.
 Alpha  occ. eigenvalues --  -15.41264 -15.40025 -15.37290 -15.36876  -1.22221
 Alpha  occ. eigenvalues --   -1.18909  -0.54393  -0.51613  -0.40822  -0.40081
 Alpha  occ. eigenvalues --   -0.36870  -0.36680  -0.34297  -0.33508   0.11011
 Alpha virt. eigenvalues --    0.32172   0.39805   0.42429   0.62544   0.64856
 Alpha virt. eigenvalues --    0.75594   0.76944   0.78266   0.81824   0.81937
 Alpha virt. eigenvalues --    0.82430   0.89185   0.92631   0.96106   0.98403

 Mulliken charges and spin densities:
               1          2
     1  N   -0.313454   0.271759
     2  N   -0.248525   0.291350
     3  N   -0.196364   0.241249
     4  N   -0.241656   0.195642
 Sum of Mulliken charges =  -1.00000   1.00000

 Dipole moment (field-independent basis, Debye):
    X=              0.2753    Y=              0.7540    Z=              0.0000  Tot=              0.8027
 Quadrupole moment (field-independent basis, Debye-Ang):
   XX=            -27.2391   YY=            -40.7782   ZZ=            -22.5327
   XY=             -2.3251   XZ=              0.0000   YZ=              0.0000

 017\CCSD(T)=-218.6356084\RMSD=9.027e-09\PG=CS [SG(N4)]\\@
 Normal termination of Gaussian 16 at Tue Feb 13 15:43:28 2024.
