 Gaussian 16, Revision A.03,
 Gaussian 16:  ES64L-G16RevA.03 25-Dec-2016

 -----------------------------------------------
 #p ROCCSD(T,MaxCyc=200)/cc-pVTZ SCF(MaxCyc=200)
 -----------------------------------------------

 ---------
 N2_N2_145
 ---------
 Symbolic Z-matrix:
 Charge = -1 Multiplicity = 2

                         Standard orientation:
 ---------------------------------------------------------------------
 Center     Atomic      Atomic             Coordinates (Angstroms)
 Number     Number       Type             X           Y           Z
 ---------------------------------------------------------------------
      1          7           0        0.578060   -2.310560    0.000000
      2          7           0       -0.192687   -1.539813    0.000000
      3          7           0       -0.192687    1.380187   -0.000000
      4          7           0       -0.192687    2.470186   -0.000000
 ---------------------------------------------------------------------

 SCF Done:  E(ROHF) =  -217.827094308     A.U. after   17 cycles
 E2 =    -0.7688579265D+00 EUMP2 =    -0.21859595223482D+03
 CCSD(T)
 CCSD(T)= -0.21862862287D+03

 The electronic state is 2-A".
 Alpha  occ. eigenvalues --  -15.40950 -15.40077 -15.39588 -15.38636  -1.22200
 Alpha  occ. eigenvalues --   -1.20893  -0.54779  -0.52650  -0.40723  -0.39570
 Alpha  occ. eigenvalues --   -0.39428  -0.36970  -0.36606  -0.34995   0.12246
 Alpha virt. eigenvalues --    0.28543   0.39521   0.41426   0.63553   0.65015
 Alpha virt. eigenvalues --    0.74794   0.75475   0.75955   0.79319   0.80614
 Alpha virt. eigenvalues --    0.86360   0.89650   0.90147   0.94689   0.98702

 Mulliken charges and spin densities:
               1          2
     1  N   -0.271711   0.247425
     2  N   -0.248683   0.272847
     3  N   -0.234069   0.255578
     4  N   -0.245537   0.224150
 Sum of Mulliken charges =  -1.00000   1.00000

 Dipole moment (field-independent basis, Debye):
    X=             -0.1505    Y=              0.3207    Z=             -0.0000  Tot=              0.3543
 Quadrupole moment (field-independent basis, Debye-Ang):
   XX=            -24.3705   YY=            -47.0819   ZZ=            -24.4131
   XY=              3.6772   XZ=             -0.0000   YZ=              0.0000

 3659\CCSD=-218.5902626\CCSD(T)=-218.6286229\RMSD=3.640e-09\PG=CS [SG(N
 Normal termination of Gaussian 16 at Tue Feb 13 16:10:45 2024.
