 Gaussian 16, Revision A.03,
 Gaussian 16:  ES64L-G16RevA.03 25-Dec-2016

 -----------------------------------------------
 #p ROCCSD(T,MaxCyc=200)/cc-pVTZ SCF(MaxCyc=200)
 -----------------------------------------------

 ---------
 N2_N2_206
 ---------
 Symbolic Z-matrix:
 Charge = -1 Multiplicity = 2

                         Standard orientation:
 ---------------------------------------------------------------------
 Center     Atomic      Atomic             Coordinates (Angstroms)
 Number     Number       Type             X           Y           Z
 ---------------------------------------------------------------------
      1          7           0       -0.817500   -2.132500    0.000000
      2          7           0        0.272500   -2.132500    0.000000
      3          7           0        0.272500    1.587500    0.000000
      4          7           0        0.272500    2.677500    0.000000
 ---------------------------------------------------------------------

 SCF Done:  E(ROHF) =  -217.825941331     A.U. after   17 cycles
 E2 =    -0.7689878810D+00 EUMP2 =    -0.21859492921199D+03
 CCSD(T)
 CCSD(T)= -0.21862677245D+03

 The electronic state is 2-A'.
 Alpha  occ. eigenvalues --  -15.41469 -15.40754 -15.40351 -15.40006  -1.22780
 Alpha  occ. eigenvalues --   -1.21827  -0.54832  -0.54226  -0.41270  -0.40695
 Alpha  occ. eigenvalues --   -0.39296  -0.38512  -0.37237  -0.36365   0.12648
 Alpha virt. eigenvalues --    0.26462   0.39154   0.39804   0.59544   0.61876
 Alpha virt. eigenvalues --    0.71581   0.76015   0.76219   0.76986   0.78174
 Alpha virt. eigenvalues --    0.83702   0.88991   0.89352   0.94417   0.95601

 Mulliken charges and spin densities:
               1          2
     1  N   -0.267829   0.254972
     2  N   -0.245292   0.258829
     3  N   -0.234407   0.254785
     4  N   -0.252472   0.231414
 Sum of Mulliken charges =  -1.00000   1.00000

 Dipole moment (field-independent basis, Debye):
    X=              0.0628    Y=              0.1389    Z=              0.0000  Tot=              0.1524
 Quadrupole moment (field-independent basis, Debye-Ang):
   XX=            -27.0040   YY=            -49.8159   ZZ=            -22.5021
   XY=             -3.0009   XZ=              0.0000   YZ=              0.0000

 067\CCSD(T)=-218.6267724\RMSD=5.719e-09\PG=CS [SG(N4)]\\@
 Normal termination of Gaussian 16 at Tue Feb 13 17:41:21 2024.
