 Gaussian 16, Revision A.03,
 Gaussian 16:  ES64L-G16RevA.03 25-Dec-2016

 -----------------------------------------------
 #p ROCCSD(T,MaxCyc=200)/cc-pVTZ SCF(MaxCyc=200)
 -----------------------------------------------

 ---------
 N2_N2_219
 ---------
 Symbolic Z-matrix:
 Charge = -1 Multiplicity = 2

                         Standard orientation:
 ---------------------------------------------------------------------
 Center     Atomic      Atomic             Coordinates (Angstroms)
 Number     Number       Type             X           Y           Z
 ---------------------------------------------------------------------
      1          7           0        0.000000    0.000000    3.050000
      2          7           0        0.000000    0.000000    1.960000
      3          7           0        0.000000    0.000000   -1.960000
      4          7           0        0.000000    0.000000   -3.050000
 ---------------------------------------------------------------------

 SCF Done:  E(ROHF) =  -217.821235129     A.U. after   11 cycles
 E2 =    -0.7696531672D+00 EUMP2 =    -0.21859088829650D+03
 CCSD(T)
 CCSD(T)= -0.21862195840D+03

 Unable to determine electronic state:  an orbital has unidentified symmetry.
 Alpha  occ. eigenvalues --  -15.41415 -15.41415 -15.40873 -15.40873  -1.22906
 Alpha  occ. eigenvalues --   -1.22895  -0.55242  -0.54882  -0.41769  -0.41454
 Alpha  occ. eigenvalues --   -0.39739  -0.39239  -0.37390  -0.37359   0.13105
 Alpha virt. eigenvalues --    0.24519   0.38626   0.39287   0.55433   0.65602
 Alpha virt. eigenvalues --    0.72083   0.75922   0.76221   0.76791   0.77047
 Alpha virt. eigenvalues --    0.87712   0.89061   0.90310   0.92939   0.93631

 Mulliken charges and spin densities:
               1          2
     1  N   -0.253832   0.242316
     2  N   -0.246168   0.257684
     3  N   -0.246168   0.257684
     4  N   -0.253832   0.242316
 Sum of Mulliken charges =  -1.00000   1.00000

 Dipole moment (field-independent basis, Debye):
    X=             -0.0000    Y=              0.0000    Z=              0.0000  Tot=              0.0000
 Quadrupole moment (field-independent basis, Debye-Ang):
   XX=            -22.4969   YY=            -24.3023   ZZ=            -61.1099
   XY=              0.0000   XZ=              0.0000   YZ=             -0.0000

 Normal termination of Gaussian 16 at Tue Feb 13 18:00:53 2024.
