 Gaussian 16, Revision A.03,
 Gaussian 16:  ES64L-G16RevA.03 25-Dec-2016

 -----------------------------------------------
 #p ROCCSD(T,MaxCyc=200)/cc-pVTZ SCF(MaxCyc=200)
 -----------------------------------------------

 ---------
 N2_N2_125
 ---------
 Symbolic Z-matrix:
 Charge = -1 Multiplicity = 2

                         Standard orientation:
 ---------------------------------------------------------------------
 Center     Atomic      Atomic             Coordinates (Angstroms)
 Number     Number       Type             X           Y           Z
 ---------------------------------------------------------------------
      1          7           0       -0.817500   -1.592500    0.000000
      2          7           0        0.272500   -1.592500    0.000000
      3          7           0        0.272500    1.047500    0.000000
      4          7           0        0.272500    2.137500    0.000000
 ---------------------------------------------------------------------

 SCF Done:  E(ROHF) =  -217.832324233     A.U. after   19 cycles
 E2 =    -0.7691861104D+00 EUMP2 =    -0.21860151034367D+03
 CCSD(T)
 CCSD(T)= -0.21863542706D+03

 The electronic state is 2-A'.
 Alpha  occ. eigenvalues --  -15.41288 -15.40036 -15.37051 -15.36632  -1.22238
 Alpha  occ. eigenvalues --   -1.18707  -0.54450  -0.51446  -0.40926  -0.40047
 Alpha  occ. eigenvalues --   -0.36699  -0.36686  -0.33981  -0.33307   0.10909
 Alpha virt. eigenvalues --    0.32466   0.39800   0.42601   0.62633   0.64797
 Alpha virt. eigenvalues --    0.75606   0.77069   0.78467   0.81850   0.82007
 Alpha virt. eigenvalues --    0.83334   0.89202   0.92989   0.96218   0.98515

 Mulliken charges and spin densities:
               1          2
     1  N   -0.317274   0.273479
     2  N   -0.249937   0.295027
     3  N   -0.191942   0.238789
     4  N   -0.240846   0.192705
 Sum of Mulliken charges =  -1.00000   1.00000

 Dipole moment (field-independent basis, Debye):
    X=              0.2943    Y=              0.8159    Z=              0.0000  Tot=              0.8674
 Quadrupole moment (field-independent basis, Debye-Ang):
   XX=            -27.2503   YY=            -40.5067   ZZ=            -22.5335
   XY=             -2.3018   XZ=              0.0000   YZ=              0.0000

 96\CCSD(T)=-218.6354271\RMSD=6.595e-09\PG=CS [SG(N4)]\\@
 Normal termination of Gaussian 16 at Tue Feb 13 15:39:02 2024.
