 Gaussian 16, Revision A.03,
 Gaussian 16:  ES64L-G16RevA.03 25-Dec-2016

 -----------------------------------------------
 #p ROCCSD(T,MaxCyc=200)/cc-pVTZ SCF(MaxCyc=200)
 -----------------------------------------------

 ---------
 N2_N2_269
 ---------
 Symbolic Z-matrix:
 Charge = -1 Multiplicity = 2

                         Standard orientation:
 ---------------------------------------------------------------------
 Center     Atomic      Atomic             Coordinates (Angstroms)
 Number     Number       Type             X           Y           Z
 ---------------------------------------------------------------------
      1          7           0       -0.817500   -2.552500    0.000000
      2          7           0        0.272500   -2.552500    0.000000
      3          7           0        0.272500    2.007500    0.000000
      4          7           0        0.272500    3.097500    0.000000
 ---------------------------------------------------------------------

 SCF Done:  E(ROHF) =  -217.821384600     A.U. after   15 cycles
 E2 =    -0.7697066538D+00 EUMP2 =    -0.21859109125406D+03
 CCSD(T)
 CCSD(T)= -0.21862130152D+03

 The electronic state is 2-A'.
 Alpha  occ. eigenvalues --  -15.41981 -15.41485 -15.41321 -15.40976  -1.23455
 Alpha  occ. eigenvalues --   -1.22864  -0.55623  -0.55239  -0.42108  -0.41658
 Alpha  occ. eigenvalues --   -0.40085  -0.39660  -0.37924  -0.37379   0.13098
 Alpha virt. eigenvalues --    0.23866   0.38419   0.38802   0.59986   0.60754
 Alpha virt. eigenvalues --    0.73417   0.75564   0.75934   0.76118   0.76672
 Alpha virt. eigenvalues --    0.79601   0.88664   0.89629   0.90836   0.92654

 Mulliken charges and spin densities:
               1          2
     1  N   -0.258034   0.253133
     2  N   -0.249846   0.254947
     3  N   -0.232560   0.252449
     4  N   -0.259560   0.239471
 Sum of Mulliken charges =  -1.00000   1.00000

 Dipole moment (field-independent basis, Debye):
    X=              0.0336    Y=              0.0898    Z=              0.0000  Tot=              0.0958
 Quadrupole moment (field-independent basis, Debye-Ang):
   XX=            -26.8964   YY=            -59.2440   ZZ=            -22.4842
   XY=             -3.5109   XZ=              0.0000   YZ=              0.0000

 875\CCSD(T)=-218.6213015\RMSD=3.866e-09\PG=CS [SG(N4)]\\@
 Normal termination of Gaussian 16 at Tue Feb 13 19:35:29 2024.
