 Gaussian 16, Revision A.03,
 Gaussian 16:  ES64L-G16RevA.03 25-Dec-2016

 -----------------------------------------------
 #p ROCCSD(T,MaxCyc=200)/cc-pVTZ SCF(MaxCyc=200)
 -----------------------------------------------

 --------
 N2_N2_96
 --------
 Symbolic Z-matrix:
 Charge = -1 Multiplicity = 2

                         Standard orientation:
 ---------------------------------------------------------------------
 Center     Atomic      Atomic             Coordinates (Angstroms)
 Number     Number       Type             X           Y           Z
 ---------------------------------------------------------------------
      1          7           0        0.000000    0.000000    2.230000
      2          7           0        0.000000    0.000000    1.140000
      3          7           0        0.000000    0.000000   -1.140000
      4          7           0        0.000000    0.000000   -2.230000
 ---------------------------------------------------------------------

 SCF Done:  E(ROHF) =  -217.814064591     A.U. after   12 cycles
 E2 =    -0.7694069951D+00 EUMP2 =    -0.21858347158626D+03
 CCSD(T)
 CCSD(T)= -0.21861671139D+03

 Unable to determine electronic state:  an orbital has unidentified symmetry.
 Alpha  occ. eigenvalues --  -15.38485 -15.38484 -15.37630 -15.37630  -1.20333
 Alpha  occ. eigenvalues --   -1.20004  -0.56484  -0.49685  -0.40122  -0.39660
 Alpha  occ. eigenvalues --   -0.37797  -0.35198  -0.34152  -0.31041   0.10711
 Alpha virt. eigenvalues --    0.33347   0.38787   0.44804   0.63369   0.65938
 Alpha virt. eigenvalues --    0.76284   0.76563   0.81157   0.81865   0.89902
 Alpha virt. eigenvalues --    0.90662   0.92092   0.94572   0.94640   1.06062

 Mulliken charges and spin densities:
               1          2
     1  N   -0.256040   0.226786
     2  N   -0.243960   0.273214
     3  N   -0.243960   0.273214
     4  N   -0.256040   0.226786
 Sum of Mulliken charges =  -1.00000   1.00000

 Dipole moment (field-independent basis, Debye):
    X=             -0.0000    Y=              0.0000    Z=              0.0000  Tot=              0.0000
 Quadrupole moment (field-independent basis, Debye-Ang):
   XX=            -22.5704   YY=            -24.5220   ZZ=            -45.4516
   XY=              0.0000   XZ=              0.0000   YZ=             -0.0000

 646\PMP2-0=-218.5834716\MP4SDQ=-218.5820464\CCSD=-218.5782419\CCSD(T)=
 Normal termination of Gaussian 16 at Tue Feb 13 14:53:28 2024.
