 Gaussian 16, Revision A.03,
 Gaussian 16:  ES64L-G16RevA.03 25-Dec-2016

 -----------------------------------------------
 #p ROCCSD(T,MaxCyc=200)/cc-pVTZ SCF(MaxCyc=200)
 -----------------------------------------------

 ---------
 N2_N2_208
 ---------
 Symbolic Z-matrix:
 Charge = -1 Multiplicity = 2

                         Standard orientation:
 ---------------------------------------------------------------------
 Center     Atomic      Atomic             Coordinates (Angstroms)
 Number     Number       Type             X           Y           Z
 ---------------------------------------------------------------------
      1          7           0        0.578060   -2.730560   -0.000000
      2          7           0       -0.192687   -1.959813    0.000000
      3          7           0       -0.192687    1.800186    0.000000
      4          7           0       -0.192687    2.890187    0.000000
 ---------------------------------------------------------------------

 SCF Done:  E(ROHF) =  -217.822260097     A.U. after   16 cycles
 E2 =    -0.7695534013D+00 EUMP2 =    -0.21859181349822D+03
 CCSD(T)
 CCSD(T)= -0.21862307636D+03

 The electronic state is 2-A".
 Alpha  occ. eigenvalues --  -15.41492 -15.40949 -15.40914 -15.40386  -1.22928
 Alpha  occ. eigenvalues --   -1.22407  -0.55146  -0.54566  -0.41618  -0.41136
 Alpha  occ. eigenvalues --   -0.39642  -0.38972  -0.37393  -0.36833   0.13002
 Alpha virt. eigenvalues --    0.25066   0.38855   0.39374   0.57788   0.64404
 Alpha virt. eigenvalues --    0.72182   0.75808   0.75921   0.77198   0.77635
 Alpha virt. eigenvalues --    0.84260   0.89041   0.90262   0.90663   0.94199

 Mulliken charges and spin densities:
               1          2
     1  N   -0.265845   0.246688
     2  N   -0.240735   0.260024
     3  N   -0.240645   0.255009
     4  N   -0.252775   0.238279
 Sum of Mulliken charges =  -1.00000   1.00000

 Dipole moment (field-independent basis, Debye):
    X=             -0.0946    Y=              0.1033    Z=              0.0000  Tot=              0.1401
 Quadrupole moment (field-independent basis, Debye-Ang):
   XX=            -24.2902   YY=            -55.5160   ZZ=            -24.3091
   XY=              4.0038   XZ=              0.0000   YZ=             -0.0000

 82043\CCSD=-218.5849498\CCSD(T)=-218.6230764\RMSD=4.000e-09\PG=CS [SG(
 Normal termination of Gaussian 16 at Tue Feb 13 17:44:15 2024.
