 Gaussian 16, Revision A.03,
 Gaussian 16:  ES64L-G16RevA.03 25-Dec-2016

 -----------------------------------------------
 #p ROCCSD(T,MaxCyc=200)/cc-pVTZ SCF(MaxCyc=200)
 -----------------------------------------------

 ---------
 N2_N2_134
 ---------
 Symbolic Z-matrix:
 Charge = -1 Multiplicity = 2

                         Standard orientation:
 ---------------------------------------------------------------------
 Center     Atomic      Atomic             Coordinates (Angstroms)
 Number     Number       Type             X           Y           Z
 ---------------------------------------------------------------------
      1          7           0       -0.817500   -1.652500    0.000000
      2          7           0        0.272500   -1.652500    0.000000
      3          7           0        0.272500    1.107500    0.000000
      4          7           0        0.272500    2.197500    0.000000
 ---------------------------------------------------------------------

 SCF Done:  E(ROHF) =  -217.833124504     A.U. after   18 cycles
 E2 =    -0.7688962487D+00 EUMP2 =    -0.21860202075266D+03
 CCSD(T)
 CCSD(T)= -0.21863566045D+03

 The electronic state is 2-A'.
 Alpha  occ. eigenvalues --  -15.41239 -15.40031 -15.37713 -15.37311  -1.22213
 Alpha  occ. eigenvalues --   -1.19276  -0.54317  -0.51921  -0.40651  -0.40157
 Alpha  occ. eigenvalues --   -0.37204  -0.36668  -0.34876  -0.33872   0.11204
 Alpha virt. eigenvalues --    0.31603   0.39797   0.42114   0.62369   0.64934
 Alpha virt. eigenvalues --    0.75585   0.76655   0.77749   0.80802   0.81472
 Alpha virt. eigenvalues --    0.82226   0.89138   0.91983   0.95894   0.98185

 Mulliken charges and spin densities:
               1          2
     1  N   -0.306932   0.268918
     2  N   -0.246311   0.285222
     3  N   -0.204149   0.245137
     4  N   -0.242608   0.200722
 Sum of Mulliken charges =  -1.00000   1.00000

 Dipole moment (field-independent basis, Debye):
    X=              0.2428    Y=              0.6497    Z=              0.0000  Tot=              0.6936
 Quadrupole moment (field-independent basis, Debye-Ang):
   XX=            -27.2180   YY=            -41.3402   ZZ=            -22.5306
   XY=             -2.3735   XZ=              0.0000   YZ=              0.0000

 966\CCSD(T)=-218.6356605\RMSD=3.819e-09\PG=CS [SG(N4)]\\@
 Normal termination of Gaussian 16 at Tue Feb 13 15:52:34 2024.
