 Gaussian 16, Revision A.03,
 Gaussian 16:  ES64L-G16RevA.03 25-Dec-2016

 -----------------------------------------------
 #p ROCCSD(T,MaxCyc=200)/cc-pVTZ SCF(MaxCyc=200)
 -----------------------------------------------

 ---------
 N2_N2_116
 ---------
 Symbolic Z-matrix:
 Charge = -1 Multiplicity = 2

                         Standard orientation:
 ---------------------------------------------------------------------
 Center     Atomic      Atomic             Coordinates (Angstroms)
 Number     Number       Type             X           Y           Z
 ---------------------------------------------------------------------
      1          7           0       -0.817500   -1.532500    0.000000
      2          7           0        0.272500   -1.532500    0.000000
      3          7           0        0.272500    0.987500    0.000000
      4          7           0        0.272500    2.077500    0.000000
 ---------------------------------------------------------------------

 SCF Done:  E(ROHF) =  -217.830167150     A.U. after   19 cycles
 E2 =    -0.7695580220D+00 EUMP2 =    -0.21859972517183D+03
 CCSD(T)
 CCSD(T)= -0.21863404472D+03

 The electronic state is 2-A'.
 Alpha  occ. eigenvalues --  -15.41449 -15.40170 -15.36175 -15.35741  -1.22377
 Alpha  occ. eigenvalues --   -1.17988  -0.54733  -0.50867  -0.41323  -0.39983
 Alpha  occ. eigenvalues --   -0.36845  -0.36038  -0.32901  -0.32591   0.10568
 Alpha virt. eigenvalues --    0.33394   0.39721   0.43202   0.62900   0.64558
 Alpha virt. eigenvalues --    0.75654   0.77406   0.78961   0.81522   0.82585
 Alpha virt. eigenvalues --    0.86481   0.89214   0.94191   0.96563   0.98884

 Mulliken charges and spin densities:
               1          2
     1  N   -0.332162   0.280667
     2  N   -0.256150   0.309834
     3  N   -0.175590   0.228192
     4  N   -0.236098   0.181307
 Sum of Mulliken charges =  -1.00000   1.00000

 Dipole moment (field-independent basis, Debye):
    X=              0.3671    Y=              1.0636    Z=              0.0000  Tot=              1.1252
 Quadrupole moment (field-independent basis, Debye-Ang):
   XX=            -27.2890   YY=            -39.7294   ZZ=            -22.5353
   XY=             -2.2367   XZ=              0.0000   YZ=              0.0000

 253\CCSD(T)=-218.6340447\RMSD=6.862e-09\PG=CS [SG(N4)]\\@
 Normal termination of Gaussian 16 at Tue Feb 13 15:25:29 2024.
