 Gaussian 16, Revision A.03,
 Gaussian 16:  ES64L-G16RevA.03 25-Dec-2016

 -----------------------------------------------
 #p ROCCSD(T,MaxCyc=200)/cc-pVTZ SCF(MaxCyc=200)
 -----------------------------------------------

 ---------
 N2_N2_199
 ---------
 Symbolic Z-matrix:
 Charge = -1 Multiplicity = 2

                         Standard orientation:
 ---------------------------------------------------------------------
 Center     Atomic      Atomic             Coordinates (Angstroms)
 Number     Number       Type             X           Y           Z
 ---------------------------------------------------------------------
      1          7           0        0.578060   -2.670560   -0.000000
      2          7           0       -0.192687   -1.899813   -0.000000
      3          7           0       -0.192687    1.740187    0.000000
      4          7           0       -0.192687    2.830186    0.000000
 ---------------------------------------------------------------------

 SCF Done:  E(ROHF) =  -217.822826370     A.U. after   16 cycles
 E2 =    -0.7694523109D+00 EUMP2 =    -0.21859227868069D+03
 CCSD(T)
 CCSD(T)= -0.21862372907D+03

 The electronic state is 2-A".
 Alpha  occ. eigenvalues --  -15.41410 -15.40806 -15.40800 -15.40206  -1.22824
 Alpha  occ. eigenvalues --   -1.22244  -0.55053  -0.54371  -0.41498  -0.40963
 Alpha  occ. eigenvalues --   -0.39566  -0.38764  -0.37288  -0.36658   0.12939
 Alpha virt. eigenvalues --    0.25453   0.38947   0.39584   0.58428   0.64487
 Alpha virt. eigenvalues --    0.72163   0.75707   0.75893   0.77443   0.77952
 Alpha virt. eigenvalues --    0.84765   0.89125   0.90132   0.91041   0.94785

 Mulliken charges and spin densities:
               1          2
     1  N   -0.265826   0.246525
     2  N   -0.241698   0.261089
     3  N   -0.241655   0.255280
     4  N   -0.250821   0.237105
 Sum of Mulliken charges =  -1.00000   1.00000

 Dipole moment (field-independent basis, Debye):
    X=             -0.0998    Y=              0.1184    Z=              0.0000  Tot=              0.1548
 Quadrupole moment (field-independent basis, Debye-Ang):
   XX=            -24.2980   YY=            -54.2037   ZZ=            -24.3211
   XY=              3.9552   XZ=              0.0000   YZ=             -0.0000

 88386\CCSD=-218.5855523\CCSD(T)=-218.6237291\RMSD=4.646e-09\PG=CS [SG(
 Normal termination of Gaussian 16 at Tue Feb 13 17:30:13 2024.
