 Gaussian 16, Revision A.03,
 Gaussian 16:  ES64L-G16RevA.03 25-Dec-2016

 -----------------------------------------------
 #p ROCCSD(T,MaxCyc=200)/cc-pVTZ SCF(MaxCyc=200)
 -----------------------------------------------

 ---------
 N2_N2_108
 ---------
 Symbolic Z-matrix:
 Charge = -1 Multiplicity = 2

                         Standard orientation:
 ---------------------------------------------------------------------
 Center     Atomic      Atomic             Coordinates (Angstroms)
 Number     Number       Type             X           Y           Z
 ---------------------------------------------------------------------
      1          7           0        0.000000    0.000000    2.310000
      2          7           0        0.000000    0.000000    1.220000
      3          7           0        0.000000    0.000000   -1.220000
      4          7           0        0.000000    0.000000   -2.310000
 ---------------------------------------------------------------------

 SCF Done:  E(ROHF) =  -217.822109604     A.U. after   12 cycles
 E2 =    -0.7686006395D+00 EUMP2 =    -0.21859071024374D+03
 CCSD(T)
 CCSD(T)= -0.21862385096D+03

 Unable to determine electronic state:  an orbital has unidentified symmetry.
 Alpha  occ. eigenvalues --  -15.39119 -15.39118 -15.38183 -15.38183  -1.20724
 Alpha  occ. eigenvalues --   -1.20503  -0.55620  -0.50603  -0.39884  -0.39876
 Alpha  occ. eigenvalues --   -0.38402  -0.35465  -0.34734  -0.33002   0.11218
 Alpha virt. eigenvalues --    0.31948   0.38844   0.43859   0.63503   0.66117
 Alpha virt. eigenvalues --    0.75934   0.76251   0.80597   0.81202   0.88115
 Alpha virt. eigenvalues --    0.90332   0.90938   0.91167   0.93753   1.04599

 Mulliken charges and spin densities:
               1          2
     1  N   -0.258854   0.227666
     2  N   -0.241146   0.272334
     3  N   -0.241146   0.272334
     4  N   -0.258854   0.227666
 Sum of Mulliken charges =  -1.00000   1.00000

 Dipole moment (field-independent basis, Debye):
    X=             -0.0000    Y=              0.0000    Z=             -0.0000  Tot=              0.0000
 Quadrupole moment (field-independent basis, Debye-Ang):
   XX=            -22.5637   YY=            -24.5140   ZZ=            -46.5742
   XY=              0.0000   XZ=              0.0000   YZ=             -0.0000

 Normal termination of Gaussian 16 at Tue Feb 13 15:12:56 2024.
