 Gaussian 16, Revision A.03,
 Gaussian 16:  ES64L-G16RevA.03 25-Dec-2016

 -----------------------------------------------
 #p ROCCSD(T,MaxCyc=200)/cc-pVTZ SCF(MaxCyc=200)
 -----------------------------------------------

 ---------
 N2_N2_232
 ---------
 Symbolic Z-matrix:
 Charge = -1 Multiplicity = 2

                         Standard orientation:
 ---------------------------------------------------------------------
 Center     Atomic      Atomic             Coordinates (Angstroms)
 Number     Number       Type             X           Y           Z
 ---------------------------------------------------------------------
      1          7           0        0.578060   -2.890560   -0.000000
      2          7           0       -0.192687   -2.119813   -0.000000
      3          7           0       -0.192687    1.960187    0.000000
      4          7           0       -0.192687    3.050186    0.000000
 ---------------------------------------------------------------------

 SCF Done:  E(ROHF) =  -217.821108156     A.U. after   15 cycles
 E2 =    -0.7697826662D+00 EUMP2 =    -0.21859089082258D+03
 CCSD(T)
 CCSD(T)= -0.21862164493D+03

 The electronic state is 2-A".
 Alpha  occ. eigenvalues --  -15.41718 -15.41295 -15.41204 -15.40803  -1.23198
 Alpha  occ. eigenvalues --   -1.22794  -0.55408  -0.55013  -0.41920  -0.41544
 Alpha  occ. eigenvalues --   -0.39872  -0.39443  -0.37667  -0.37238   0.13122
 Alpha virt. eigenvalues --    0.24166   0.38615   0.38929   0.56959   0.64067
 Alpha virt. eigenvalues --    0.72524   0.75900   0.75944   0.76641   0.76933
 Alpha virt. eigenvalues --    0.82332   0.88831   0.89807   0.90579   0.92923

 Mulliken charges and spin densities:
               1          2
     1  N   -0.265940   0.247082
     2  N   -0.238918   0.257922
     3  N   -0.237921   0.254384
     4  N   -0.257221   0.240612
 Sum of Mulliken charges =  -1.00000   1.00000

 Dipole moment (field-independent basis, Debye):
    X=             -0.0825    Y=              0.0754    Z=             -0.0000  Tot=              0.1118
 Quadrupole moment (field-independent basis, Debye-Ang):
   XX=            -24.2730   YY=            -59.1799   ZZ=            -24.2833
   XY=              4.1339   XZ=             -0.0000   YZ=             -0.0000

 68835\CCSD=-218.5837777\CCSD(T)=-218.6216449\RMSD=8.250e-09\PG=CS [SG(
 Normal termination of Gaussian 16 at Tue Feb 13 18:23:23 2024.
