 Gaussian 16, Revision A.03,
 Gaussian 16:  ES64L-G16RevA.03 25-Dec-2016

 -----------------------------------------------
 #p ROCCSD(T,MaxCyc=200)/cc-pVTZ SCF(MaxCyc=200)
 -----------------------------------------------

 ---------
 N2_N2_231
 ---------
 Symbolic Z-matrix:
 Charge = -1 Multiplicity = 2

                         Standard orientation:
 ---------------------------------------------------------------------
 Center     Atomic      Atomic             Coordinates (Angstroms)
 Number     Number       Type             X           Y           Z
 ---------------------------------------------------------------------
      1          7           0        0.000000    0.000000    3.130000
      2          7           0        0.000000    0.000000    2.040000
      3          7           0        0.000000    0.000000   -2.040000
      4          7           0        0.000000    0.000000   -3.130000
 ---------------------------------------------------------------------

 SCF Done:  E(ROHF) =  -217.820731099     A.U. after   11 cycles
 E2 =    -0.7697866650D+00 EUMP2 =    -0.21859051776419D+03
 CCSD(T)
 CCSD(T)= -0.21862138881D+03

 Unable to determine electronic state:  an orbital has unidentified symmetry.
 Alpha  occ. eigenvalues --  -15.41555 -15.41555 -15.41043 -15.41042  -1.23062
 Alpha  occ. eigenvalues --   -1.23054  -0.55375  -0.55097  -0.41923  -0.41642
 Alpha  occ. eigenvalues --   -0.39853  -0.39479  -0.37544  -0.37522   0.13158
 Alpha virt. eigenvalues --    0.24083   0.38544   0.39038   0.54922   0.65538
 Alpha virt. eigenvalues --    0.72271   0.75891   0.76187   0.76537   0.76789
 Alpha virt. eigenvalues --    0.86593   0.88930   0.90486   0.91036   0.93000

 Mulliken charges and spin densities:
               1          2
     1  N   -0.256113   0.243024
     2  N   -0.243887   0.256976
     3  N   -0.243887   0.256976
     4  N   -0.256113   0.243024
 Sum of Mulliken charges =  -1.00000   1.00000

 Dipole moment (field-independent basis, Debye):
    X=             -0.0000    Y=              0.0000    Z=              0.0000  Tot=              0.0000
 Quadrupole moment (field-independent basis, Debye-Ang):
   XX=            -22.4932   YY=            -24.2890   ZZ=            -63.0204
   XY=              0.0000   XZ=              0.0000   YZ=             -0.0000

 7311\PMP2-0=-218.5905178\MP4SDQ=-218.5864996\CCSD=-218.583145\CCSD(T)=
 Normal termination of Gaussian 16 at Tue Feb 13 18:21:29 2024.
