 Gaussian 16, Revision A.03,
 Gaussian 16:  ES64L-G16RevA.03 25-Dec-2016

 -----------------------------------------------
 #p ROCCSD(T,MaxCyc=200)/cc-pVTZ SCF(MaxCyc=200)
 -----------------------------------------------

 --------
 N2_N2_87
 --------
 Symbolic Z-matrix:
 Charge = -1 Multiplicity = 2

                         Standard orientation:
 ---------------------------------------------------------------------
 Center     Atomic      Atomic             Coordinates (Angstroms)
 Number     Number       Type             X           Y           Z
 ---------------------------------------------------------------------
      1          7           0        0.000000    0.000000    2.170000
      2          7           0        0.000000    0.000000    1.080000
      3          7           0        0.000000    0.000000   -1.080000
      4          7           0        0.000000    0.000000   -2.170000
 ---------------------------------------------------------------------

 SCF Done:  E(ROHF) =  -217.803187066     A.U. after   12 cycles
 E2 =    -0.7705005340D+00 EUMP2 =    -0.21857368759967D+03
 CCSD(T)
 CCSD(T)= -0.21860694156D+03

 Unable to determine electronic state:  an orbital has unidentified symmetry.
 Alpha  occ. eigenvalues --  -15.37891 -15.37890 -15.37154 -15.37153  -1.20013
 Alpha  occ. eigenvalues --   -1.19569  -0.57479  -0.48923  -0.40300  -0.39524
 Alpha  occ. eigenvalues --   -0.37282  -0.35008  -0.33635  -0.29121   0.10254
 Alpha virt. eigenvalues --    0.34521   0.38715   0.45620   0.63309   0.65802
 Alpha virt. eigenvalues --    0.76617   0.76860   0.81597   0.82398   0.89815
 Alpha virt. eigenvalues --    0.90911   0.92913   0.95425   0.98452   1.07146

 Mulliken charges and spin densities:
               1          2
     1  N   -0.251166   0.226877
     2  N   -0.248834   0.273123
     3  N   -0.248834   0.273123
     4  N   -0.251166   0.226877
 Sum of Mulliken charges =  -1.00000   1.00000

 Dipole moment (field-independent basis, Debye):
    X=             -0.0000    Y=              0.0000    Z=             -0.0000  Tot=              0.0000
 Quadrupole moment (field-independent basis, Debye-Ang):
   XX=            -24.5174   YY=            -22.5728   ZZ=            -44.6815
   XY=              0.0000   XZ=              0.0000   YZ=             -0.0000

 871\PMP2-0=-218.5736876\MP4SDQ=-218.5722271\CCSD=-218.5683422\CCSD(T)=
 Normal termination of Gaussian 16 at Tue Feb 13 14:42:55 2024.
