 Gaussian 16, Revision A.03,
 Gaussian 16:  ES64L-G16RevA.03 25-Dec-2016

 -----------------------------------------------
 #p ROCCSD(T,MaxCyc=200)/cc-pVTZ SCF(MaxCyc=200)
 -----------------------------------------------

 --------
 N2_N2_55
 --------
 Symbolic Z-matrix:
 Charge = -1 Multiplicity = 2

                         Standard orientation:
 ---------------------------------------------------------------------
 Center     Atomic      Atomic             Coordinates (Angstroms)
 Number     Number       Type             X           Y           Z
 ---------------------------------------------------------------------
      1          7           0        0.578060   -1.710560    0.000000
      2          7           0       -0.192687   -0.939814    0.000000
      3          7           0       -0.192687    0.780187   -0.000000
      4          7           0       -0.192687    1.870186   -0.000000
 ---------------------------------------------------------------------

 SCF Done:  E(ROHF) =  -217.730009749     A.U. after   19 cycles
 E2 =    -0.7777426229D+00 EUMP2 =    -0.21850775237162D+03
 CCSD(T)
 CCSD(T)= -0.21854413924D+03

 The electronic state is 2-A".
 Alpha  occ. eigenvalues --  -15.43094 -15.38138 -15.31384 -15.30810  -1.22477
 Alpha  occ. eigenvalues --   -1.14962  -0.65562  -0.46979  -0.40575  -0.39649
 Alpha  occ. eigenvalues --   -0.38804  -0.35513  -0.29387  -0.17997   0.05040
 Alpha virt. eigenvalues --    0.40241   0.42399   0.46648   0.64561   0.66898
 Alpha virt. eigenvalues --    0.77010   0.77361   0.80352   0.84455   0.86474
 Alpha virt. eigenvalues --    0.90667   0.92948   0.96128   1.03961   1.05436

 Mulliken charges and spin densities:
               1          2
     1  N   -0.270618   0.071877
     2  N   -0.006641   0.064531
     3  N   -0.411827   0.398981
     4  N   -0.310914   0.464611
 Sum of Mulliken charges =  -1.00000   1.00000

 Dipole moment (field-independent basis, Debye):
    X=             -0.0224    Y=             -2.1850    Z=              0.0000  Tot=              2.1851
 Quadrupole moment (field-independent basis, Debye-Ang):
   XX=            -24.4789   YY=            -40.1350   ZZ=            -23.9874
   XY=              3.0300   XZ=             -0.0000   YZ=              0.0000

 69\CCSD=-218.5027988\CCSD(T)=-218.5441392\RMSD=6.761e-09\PG=CS [SG(N4)
 Normal termination of Gaussian 16 at Tue Feb 13 13:52:24 2024.
