 Gaussian 16, Revision A.03,
 Gaussian 16:  ES64L-G16RevA.03 25-Dec-2016

 -----------------------------------------------
 #p ROCCSD(T,MaxCyc=200)/cc-pVTZ SCF(MaxCyc=200)
 -----------------------------------------------

 ---------
 N2_N2_201
 ---------
 Symbolic Z-matrix:
 Charge = -1 Multiplicity = 2

                         Standard orientation:
 ---------------------------------------------------------------------
 Center     Atomic      Atomic             Coordinates (Angstroms)
 Number     Number       Type             X           Y           Z
 ---------------------------------------------------------------------
      1          7           0        0.000000    0.000000    2.930000
      2          7           0        0.000000    0.000000    1.840000
      3          7           0        0.000000    0.000000   -1.840000
      4          7           0        0.000000    0.000000   -2.930000
 ---------------------------------------------------------------------

 SCF Done:  E(ROHF) =  -217.822241079     A.U. after   11 cycles
 E2 =    -0.7694067788D+00 EUMP2 =    -0.21859164785801D+03
 CCSD(T)
 CCSD(T)= -0.21862304613D+03

 Unable to determine electronic state:  an orbital has unidentified symmetry.
 Alpha  occ. eigenvalues --  -15.41194 -15.41194 -15.40596 -15.40595  -1.22655
 Alpha  occ. eigenvalues --   -1.22640  -0.55049  -0.54510  -0.41520  -0.41140
 Alpha  occ. eigenvalues --   -0.39587  -0.38816  -0.37146  -0.37094   0.12995
 Alpha virt. eigenvalues --    0.25265   0.38728   0.39720   0.57074   0.65442
 Alpha virt. eigenvalues --    0.71920   0.75915   0.76220   0.77231   0.77497
 Alpha virt. eigenvalues --    0.88415   0.89271   0.89990   0.92631   0.94804

 Mulliken charges and spin densities:
               1          2
     1  N   -0.250720   0.240939
     2  N   -0.249280   0.259061
     3  N   -0.249280   0.259061
     4  N   -0.250720   0.240939
 Sum of Mulliken charges =  -1.00000   1.00000

 Dipole moment (field-independent basis, Debye):
    X=             -0.0000    Y=              0.0000    Z=              0.0000  Tot=              0.0000
 Quadrupole moment (field-independent basis, Debye-Ang):
   XX=            -24.3272   YY=            -22.5034   ZZ=            -58.3560
   XY=              0.0000   XZ=              0.0000   YZ=             -0.0000

 Normal termination of Gaussian 16 at Tue Feb 13 17:33:12 2024.
