 Gaussian 16, Revision A.03,
 Gaussian 16:  ES64L-G16RevA.03 25-Dec-2016

 -----------------------------------------------
 #p ROCCSD(T,MaxCyc=200)/cc-pVTZ SCF(MaxCyc=200)
 -----------------------------------------------

 --------
 N2_N2_29
 --------
 Symbolic Z-matrix:
 Charge = -1 Multiplicity = 2

                         Standard orientation:
 ---------------------------------------------------------------------
 Center     Atomic      Atomic             Coordinates (Angstroms)
 Number     Number       Type             X           Y           Z
 ---------------------------------------------------------------------
      1          7           0       -0.817500   -0.952500    0.000000
      2          7           0        0.272500   -0.952500    0.000000
      3          7           0        0.272500    0.407500    0.000000
      4          7           0        0.272500    1.497500    0.000000
 ---------------------------------------------------------------------

 SCF Done:  E(ROHF) =  -217.555437106     A.U. after   21 cycles
 E2 =    -0.7680286362D+00 EUMP2 =    -0.21832346574201D+03
 CCSD(T)
 CCSD(T)= -0.21837207084D+03

 The electronic state is 2-A".
 Alpha  occ. eigenvalues --  -15.43247 -15.39031 -15.33550 -15.27426  -1.29835
 Alpha  occ. eigenvalues --   -1.15942  -0.74173  -0.51619  -0.49203  -0.41157
 Alpha  occ. eigenvalues --   -0.34759  -0.32541  -0.31172  -0.05770   0.01160
 Alpha virt. eigenvalues --    0.42997   0.44550   0.54688   0.62593   0.65160
 Alpha virt. eigenvalues --    0.72276   0.76791   0.78467   0.84767   0.85910
 Alpha virt. eigenvalues --    0.92563   0.96113   0.96925   0.98756   1.03303

 Mulliken charges and spin densities:
               1          2
     1  N   -0.574303   0.077598
     2  N    0.014224   0.012107
     3  N   -0.049675   0.349994
     4  N   -0.390246   0.560301
 Sum of Mulliken charges =  -1.00000   1.00000

 Dipole moment (field-independent basis, Debye):
    X=              1.4747    Y=             -0.4723    Z=              0.0000  Tot=              1.5485
 Quadrupole moment (field-independent basis, Debye-Ang):
   XX=            -27.1892   YY=            -36.1987   ZZ=            -22.9586
   XY=             -3.3904   XZ=              0.0000   YZ=              0.0000

 95\CCSD(T)=-218.3720708\RMSD=9.743e-09\PG=CS [SG(N4)]\\@
 Normal termination of Gaussian 16 at Tue Feb 13 13:08:15 2024.
