 Gaussian 16, Revision A.03,
 Gaussian 16:  ES64L-G16RevA.03 25-Dec-2016

 -----------------------------------------------
 #p ROCCSD(T,MaxCyc=200)/cc-pVTZ SCF(MaxCyc=200)
 -----------------------------------------------

 --------
 N2_N2_15
 --------
 Symbolic Z-matrix:
 Charge = -1 Multiplicity = 2

                         Standard orientation:
 ---------------------------------------------------------------------
 Center     Atomic      Atomic             Coordinates (Angstroms)
 Number     Number       Type             X           Y           Z
 ---------------------------------------------------------------------
      1          7           0        0.000000    0.000000    1.690000
      2          7           0        0.000000    0.000000    0.600000
      3          7           0        0.000000    0.000000   -0.600000
      4          7           0        0.000000    0.000000   -1.690000
 ---------------------------------------------------------------------

 SCF Done:  E(ROHF) =  -217.564091101     A.U. after   12 cycles
 E2 =    -0.8254931155D+00 EUMP2 =    -0.21838958421670D+03
 CCSD(T)
 CCSD(T)= -0.21840324283D+03

 Unable to determine electronic state:  an orbital has unidentified symmetry.
 Alpha  occ. eigenvalues --  -15.48349 -15.48189 -15.31506 -15.31505  -1.29979
 Alpha  occ. eigenvalues --   -1.18382  -0.96709  -0.53710  -0.51777  -0.40603
 Alpha  occ. eigenvalues --   -0.38511  -0.34321  -0.32398  -0.00344   0.00616
 Alpha virt. eigenvalues --    0.46006   0.48681   0.56846   0.65732   0.68639
 Alpha virt. eigenvalues --    0.71679   0.74710   0.75821   0.84307   0.85306
 Alpha virt. eigenvalues --    0.86652   0.94673   0.95882   1.05043   1.10372

 Mulliken charges and spin densities:
               1          2
     1  N   -0.334972   0.388541
     2  N   -0.165028   0.111459
     3  N   -0.165028   0.111459
     4  N   -0.334972   0.388541
 Sum of Mulliken charges =  -1.00000   1.00000

 Dipole moment (field-independent basis, Debye):
    X=             -0.0000    Y=             -0.0000    Z=             -0.0000  Tot=              0.0000
 Quadrupole moment (field-independent basis, Debye-Ang):
   XX=            -22.6838   YY=            -24.2390   ZZ=            -46.4473
   XY=             -0.0000   XZ=              0.0000   YZ=             -0.0000

 11\PMP2-0=-218.3895842\MP4SDQ=-218.362846\CCSD=-218.3575468\CCSD(T)=-2
 Normal termination of Gaussian 16 at Tue Feb 13 12:45:09 2024.
