 Gaussian 16, Revision A.03,
 Gaussian 16:  ES64L-G16RevA.03 25-Dec-2016

 -----------------------------------------------
 #p ROCCSD(T,MaxCyc=200)/cc-pVTZ SCF(MaxCyc=200)
 -----------------------------------------------

 ---------
 N2_N2_214
 ---------
 Symbolic Z-matrix:
 Charge = -1 Multiplicity = 2

                         Standard orientation:
 ---------------------------------------------------------------------
 Center     Atomic      Atomic             Coordinates (Angstroms)
 Number     Number       Type             X           Y           Z
 ---------------------------------------------------------------------
      1          7           0        0.578060   -2.770560   -0.000000
      2          7           0       -0.192687   -1.999813   -0.000000
      3          7           0       -0.192687    1.840187    0.000000
      4          7           0       -0.192687    2.930186    0.000000
 ---------------------------------------------------------------------

 SCF Done:  E(ROHF) =  -217.821924440     A.U. after   16 cycles
 E2 =    -0.7696156803D+00 EUMP2 =    -0.21859154012067D+03
 CCSD(T)
 CCSD(T)= -0.21862267968D+03

 The electronic state is 2-A".
 Alpha  occ. eigenvalues --  -15.41548 -15.41041 -15.40988 -15.40498  -1.22996
 Alpha  occ. eigenvalues --   -1.22510  -0.55210  -0.54688  -0.41696  -0.41245
 Alpha  occ. eigenvalues --   -0.39696  -0.39101  -0.37463  -0.36942   0.13037
 Alpha virt. eigenvalues --    0.24824   0.38794   0.39247   0.57461   0.64340
 Alpha virt. eigenvalues --    0.72234   0.75860   0.75928   0.77046   0.77440
 Alpha virt. eigenvalues --    0.83857   0.88988   0.90349   0.90427   0.93841

 Mulliken charges and spin densities:
               1          2
     1  N   -0.265876   0.246790
     2  N   -0.240169   0.259403
     3  N   -0.239926   0.254843
     4  N   -0.254028   0.238964
 Sum of Mulliken charges =  -1.00000   1.00000

 Dipole moment (field-independent basis, Debye):
    X=             -0.0913    Y=              0.0947    Z=             -0.0000  Tot=              0.1316
 Quadrupole moment (field-independent basis, Debye-Ang):
   XX=            -24.2854   YY=            -56.4095   ZZ=            -24.3018
   XY=              4.0363   XZ=              0.0000   YZ=             -0.0000

 242\CCSD=-218.5845954\CCSD(T)=-218.6226797\RMSD=3.426e-09\PG=CS [SG(N4
 Normal termination of Gaussian 16 at Tue Feb 13 17:53:15 2024.
