 Gaussian 16, Revision A.03,
 Gaussian 16:  ES64L-G16RevA.03 25-Dec-2016

 -----------------------------------------------
 #p ROCCSD(T,MaxCyc=200)/cc-pVTZ SCF(MaxCyc=200)
 -----------------------------------------------

 ---------
 N2_N2_200
 ---------
 Symbolic Z-matrix:
 Charge = -1 Multiplicity = 2

                         Standard orientation:
 ---------------------------------------------------------------------
 Center     Atomic      Atomic             Coordinates (Angstroms)
 Number     Number       Type             X           Y           Z
 ---------------------------------------------------------------------
      1          7           0       -0.817500   -2.092500    0.000000
      2          7           0        0.272500   -2.092500    0.000000
      3          7           0        0.272500    1.547500    0.000000
      4          7           0        0.272500    2.637500    0.000000
 ---------------------------------------------------------------------

 SCF Done:  E(ROHF) =  -217.826618891     A.U. after   17 cycles
 E2 =    -0.7689170918D+00 EUMP2 =    -0.21859553598259D+03
 CCSD(T)
 CCSD(T)= -0.21862751971D+03

 The electronic state is 2-A'.
 Alpha  occ. eigenvalues --  -15.41435 -15.40686 -15.40223 -15.39878  -1.22720
 Alpha  occ. eigenvalues --   -1.21692  -0.54758  -0.54096  -0.41182  -0.40603
 Alpha  occ. eigenvalues --   -0.39207  -0.38348  -0.37175  -0.36234   0.12574
 Alpha virt. eigenvalues --    0.26788   0.39220   0.39932   0.59757   0.62065
 Alpha virt. eigenvalues --    0.71525   0.76030   0.76175   0.77125   0.78384
 Alpha virt. eigenvalues --    0.83762   0.88899   0.89393   0.94482   0.95788

 Mulliken charges and spin densities:
               1          2
     1  N   -0.269686   0.255456
     2  N   -0.244703   0.259611
     3  N   -0.234467   0.254920
     4  N   -0.251144   0.230013
 Sum of Mulliken charges =  -1.00000   1.00000

 Dipole moment (field-independent basis, Debye):
    X=              0.0698    Y=              0.1557    Z=              0.0000  Tot=              0.1706
 Quadrupole moment (field-independent basis, Debye-Ang):
   XX=            -27.0190   YY=            -49.0057   ZZ=            -22.5042
   XY=             -2.9506   XZ=              0.0000   YZ=              0.0000

 2\CCSD(T)=-218.6275197\RMSD=3.736e-09\PG=CS [SG(N4)]\\@
 Normal termination of Gaussian 16 at Tue Feb 13 17:31:57 2024.
