 Gaussian 16, Revision A.03,
 Gaussian 16:  ES64L-G16RevA.03 25-Dec-2016

 -----------------------------------------------
 #p ROCCSD(T,MaxCyc=200)/cc-pVTZ SCF(MaxCyc=200)
 -----------------------------------------------

 ---------
 N2_N2_103
 ---------
 Symbolic Z-matrix:
 Charge = -1 Multiplicity = 2

                         Standard orientation:
 ---------------------------------------------------------------------
 Center     Atomic      Atomic             Coordinates (Angstroms)
 Number     Number       Type             X           Y           Z
 ---------------------------------------------------------------------
      1          7           0        0.578060   -2.030560    0.000000
      2          7           0       -0.192687   -1.259813    0.000000
      3          7           0       -0.192687    1.100187   -0.000000
      4          7           0       -0.192687    2.190186   -0.000000
 ---------------------------------------------------------------------

 SCF Done:  E(ROHF) =  -217.821453187     A.U. after   20 cycles
 E2 =    -0.7698569710D+00 EUMP2 =    -0.21859131015791D+03
 CCSD(T)
 CCSD(T)= -0.21862533407D+03

 The electronic state is 2-A".
 Alpha  occ. eigenvalues --  -15.41156 -15.40141 -15.36912 -15.35595  -1.22329
 Alpha  occ. eigenvalues --   -1.18456  -0.56143  -0.50093  -0.40431  -0.40211
 Alpha  occ. eigenvalues --   -0.37568  -0.36829  -0.34118  -0.31067   0.10992
 Alpha virt. eigenvalues --    0.32262   0.39570   0.44198   0.63816   0.66200
 Alpha virt. eigenvalues --    0.74668   0.75684   0.81336   0.82291   0.85427
 Alpha virt. eigenvalues --    0.87632   0.89467   0.92389   1.02441   1.02695

 Mulliken charges and spin densities:
               1          2
     1  N   -0.305654   0.275024
     2  N   -0.269587   0.300753
     3  N   -0.191038   0.232890
     4  N   -0.233721   0.191334
 Sum of Mulliken charges =  -1.00000   1.00000

 Dipole moment (field-independent basis, Debye):
    X=             -0.2953    Y=              1.1081    Z=             -0.0000  Tot=              1.1468
 Quadrupole moment (field-independent basis, Debye-Ang):
   XX=            -24.5333   YY=            -42.6378   ZZ=            -24.4560
   XY=              3.5599   XZ=             -0.0000   YZ=              0.0000

 9716\CCSD=-218.586612\CCSD(T)=-218.6253341\RMSD=2.395e-09\PG=CS [SG(N4
 Normal termination of Gaussian 16 at Tue Feb 13 15:03:59 2024.
