 Gaussian 16, Revision A.03,
 Gaussian 16:  ES64L-G16RevA.03 25-Dec-2016

 -----------------------------------------------
 #p ROCCSD(T,MaxCyc=200)/cc-pVTZ SCF(MaxCyc=200)
 -----------------------------------------------

 --------
 N2_N2_70
 --------
 Symbolic Z-matrix:
 Charge = -1 Multiplicity = 2

                         Standard orientation:
 ---------------------------------------------------------------------
 Center     Atomic      Atomic             Coordinates (Angstroms)
 Number     Number       Type             X           Y           Z
 ---------------------------------------------------------------------
      1          7           0        0.578060   -1.810560    0.000000
      2          7           0       -0.192687   -1.039813    0.000000
      3          7           0       -0.192687    0.880187    0.000000
      4          7           0       -0.192687    1.970186    0.000000
 ---------------------------------------------------------------------

 SCF Done:  E(ROHF) =  -217.781363749     A.U. after   21 cycles
 E2 =    -0.7689142328D+00 EUMP2 =    -0.21855027798205D+03
 CCSD(T)
 CCSD(T)= -0.21858826502D+03

 The electronic state is 2-A".
 Alpha  occ. eigenvalues --  -15.44697 -15.41765 -15.29954 -15.29410  -1.24435
 Alpha  occ. eigenvalues --   -1.13533  -0.60934  -0.48573  -0.40579  -0.40393
 Alpha  occ. eigenvalues --   -0.39030  -0.35523  -0.28261  -0.23561   0.07129
 Alpha virt. eigenvalues --    0.37675   0.40327   0.46585   0.63209   0.67967
 Alpha virt. eigenvalues --    0.75798   0.76442   0.79835   0.84397   0.85689
 Alpha virt. eigenvalues --    0.90296   0.94028   0.94736   1.04063   1.04155

 Mulliken charges and spin densities:
               1          2
     1  N   -0.201686   0.063357
     2  N   -0.003678   0.074774
     3  N   -0.454370   0.416241
     4  N   -0.340266   0.445628
 Sum of Mulliken charges =  -1.00000   1.00000

 Dipole moment (field-independent basis, Debye):
    X=              0.1657    Y=             -3.4436    Z=             -0.0000  Tot=              3.4476
 Quadrupole moment (field-independent basis, Debye-Ang):
   XX=            -24.1600   YY=            -40.8187   ZZ=            -24.1878
   XY=              2.9792   XZ=             -0.0000   YZ=              0.0000

 77\CCSD=-218.548494\CCSD(T)=-218.588265\RMSD=3.477e-09\PG=CS [SG(N4)]\
 Normal termination of Gaussian 16 at Tue Feb 13 14:20:27 2024.
