 Gaussian 16, Revision A.03,
 Gaussian 16:  ES64L-G16RevA.03 25-Dec-2016

 -----------------------------------------------
 #p ROCCSD(T,MaxCyc=200)/cc-pVTZ SCF(MaxCyc=200)
 -----------------------------------------------

 --------
 N2_N2_62
 --------
 Symbolic Z-matrix:
 Charge = -1 Multiplicity = 2

                         Standard orientation:
 ---------------------------------------------------------------------
 Center     Atomic      Atomic             Coordinates (Angstroms)
 Number     Number       Type             X           Y           Z
 ---------------------------------------------------------------------
      1          7           0       -0.817500   -1.172500    0.000000
      2          7           0        0.272500   -1.172500    0.000000
      3          7           0        0.272500    0.627500    0.000000
      4          7           0        0.272500    1.717500    0.000000
 ---------------------------------------------------------------------

 SCF Done:  E(ROHF) =  -217.730643347     A.U. after   18 cycles
 E2 =    -0.7794407072D+00 EUMP2 =    -0.21851008405413D+03
 CCSD(T)
 CCSD(T)= -0.21854515642D+03

 The electronic state is 2-A'.
 Alpha  occ. eigenvalues --  -15.41674 -15.38094 -15.30462 -15.29870  -1.22557
 Alpha  occ. eigenvalues --   -1.14031  -0.59528  -0.51656  -0.39428  -0.38362
 Alpha  occ. eigenvalues --   -0.37165  -0.35653  -0.28380  -0.19290   0.06774
 Alpha virt. eigenvalues --    0.39618   0.41810   0.46724   0.61508   0.66999
 Alpha virt. eigenvalues --    0.73419   0.76656   0.77883   0.84162   0.86174
 Alpha virt. eigenvalues --    0.93776   0.95238   0.96742   1.03117   1.03604

 Mulliken charges and spin densities:
               1          2
     1  N   -0.208743   0.055046
     2  N   -0.055994   0.130946
     3  N   -0.381352   0.410685
     4  N   -0.353911   0.403323
 Sum of Mulliken charges =  -1.00000   1.00000

 Dipole moment (field-independent basis, Debye):
    X=             -0.0963    Y=             -2.3055    Z=              0.0000  Tot=              2.3075
 Quadrupole moment (field-independent basis, Debye-Ang):
   XX=            -26.7830   YY=            -36.7915   ZZ=            -22.3746
   XY=             -2.2902   XZ=              0.0000   YZ=              0.0000

 6\CCSD(T)=-218.5451564\RMSD=3.282e-09\PG=CS [SG(N4)]\\@
 Normal termination of Gaussian 16 at Tue Feb 13 14:06:10 2024.
