 Gaussian 16, Revision A.03,
 Gaussian 16:  ES64L-G16RevA.03 25-Dec-2016

 -----------------------------------------------
 #p ROCCSD(T,MaxCyc=200)/cc-pVTZ SCF(MaxCyc=200)
 -----------------------------------------------

 ---------
 N2_N2_290
 ---------
 Symbolic Z-matrix:
 Charge = -1 Multiplicity = 2

                         Standard orientation:
 ---------------------------------------------------------------------
 Center     Atomic      Atomic             Coordinates (Angstroms)
 Number     Number       Type             X           Y           Z
 ---------------------------------------------------------------------
      1          7           0       -0.817500   -2.692500    0.000000
      2          7           0        0.272500   -2.692500    0.000000
      3          7           0        0.272500    2.147500    0.000000
      4          7           0        0.272500    3.237500    0.000000
 ---------------------------------------------------------------------

 SCF Done:  E(ROHF) =  -217.820739060     A.U. after   15 cycles
 E2 =    -0.7699136827D+00 EUMP2 =    -0.21859065274301D+03
 CCSD(T)
 CCSD(T)= -0.21861981332D+03

 The electronic state is 2-A'.
 Alpha  occ. eigenvalues --  -15.42173 -15.41711 -15.41578 -15.41232  -1.23670
 Alpha  occ. eigenvalues --   -1.23132  -0.55860  -0.55503  -0.42346  -0.41933
 Alpha  occ. eigenvalues --   -0.40319  -0.39930  -0.38140  -0.37642   0.13160
 Alpha virt. eigenvalues --    0.23250   0.38190   0.38545   0.60152   0.60525
 Alpha virt. eigenvalues --    0.74081   0.75335   0.75699   0.75939   0.76377
 Alpha virt. eigenvalues --    0.77959   0.88483   0.89151   0.90803   0.91899

 Mulliken charges and spin densities:
               1          2
     1  N   -0.256752   0.252897
     2  N   -0.250431   0.254373
     3  N   -0.233278   0.252007
     4  N   -0.259539   0.240723
 Sum of Mulliken charges =  -1.00000   1.00000

 Dipole moment (field-independent basis, Debye):
    X=              0.0305    Y=              0.0903    Z=              0.0000  Tot=              0.0953
 Quadrupole moment (field-independent basis, Debye-Ang):
   XX=            -26.8775   YY=            -62.7384   ZZ=            -22.4806
   XY=             -3.6796   XZ=              0.0000   YZ=              0.0000

 697\CCSD(T)=-218.6198133\RMSD=3.242e-09\PG=CS [SG(N4)]\\@
 Normal termination of Gaussian 16 at Tue Feb 13 20:37:13 2024.
