 Gaussian 16, Revision A.03,
 Gaussian 16:  ES64L-G16RevA.03 25-Dec-2016

 -----------------------------------------------
 #p ROCCSD(T,MaxCyc=200)/cc-pVTZ SCF(MaxCyc=200)
 -----------------------------------------------

 ---------
 N2_N2_299
 ---------
 Symbolic Z-matrix:
 Charge = -1 Multiplicity = 2

                         Standard orientation:
 ---------------------------------------------------------------------
 Center     Atomic      Atomic             Coordinates (Angstroms)
 Number     Number       Type             X           Y           Z
 ---------------------------------------------------------------------
      1          7           0       -0.817500   -2.752500    0.000000
      2          7           0        0.272500   -2.752500    0.000000
      3          7           0        0.272500    2.207500    0.000000
      4          7           0        0.272500    3.297500    0.000000
 ---------------------------------------------------------------------

 SCF Done:  E(ROHF) =  -217.820549874     A.U. after   15 cycles
 E2 =    -0.7699959766D+00 EUMP2 =    -0.21859054585060D+03
 CCSD(T)
 CCSD(T)= -0.21861922079D+03

 The electronic state is 2-A'.
 Alpha  occ. eigenvalues --  -15.42253 -15.41802 -15.41684 -15.41339  -1.23758
 Alpha  occ. eigenvalues --   -1.23242  -0.55955  -0.55610  -0.42442  -0.42045
 Alpha  occ. eigenvalues --   -0.40413  -0.40039  -0.38228  -0.37750   0.13178
 Alpha virt. eigenvalues --    0.23012   0.38098   0.38440   0.60147   0.60440
 Alpha virt. eigenvalues --    0.74298   0.75236   0.75607   0.75858   0.76266
 Alpha virt. eigenvalues --    0.77404   0.88403   0.88993   0.90793   0.91656

 Mulliken charges and spin densities:
               1          2
     1  N   -0.256301   0.252786
     2  N   -0.250579   0.254150
     3  N   -0.233709   0.251887
     4  N   -0.259412   0.241177
 Sum of Mulliken charges =  -1.00000   1.00000

 Dipole moment (field-independent basis, Debye):
    X=              0.0291    Y=              0.0897    Z=              0.0000  Tot=              0.0943
 Quadrupole moment (field-independent basis, Debye-Ang):
   XX=            -26.8711   YY=            -64.2898   ZZ=            -22.4794
   XY=             -3.7520   XZ=              0.0000   YZ=              0.0000

 615\CCSD(T)=-218.6192208\RMSD=3.670e-09\PG=CS [SG(N4)]\\@
 Normal termination of Gaussian 16 at Tue Feb 13 21:06:47 2024.
