 Gaussian 16, Revision A.03,
 Gaussian 16:  ES64L-G16RevA.03 25-Dec-2016

 -----------------------------------------------
 #p ROCCSD(T,MaxCyc=200)/cc-pVTZ SCF(MaxCyc=200)
 -----------------------------------------------

 --------
 N2_N2_11
 --------
 Symbolic Z-matrix:
 Charge = -1 Multiplicity = 2

                         Standard orientation:
 ---------------------------------------------------------------------
 Center     Atomic      Atomic             Coordinates (Angstroms)
 Number     Number       Type             X           Y           Z
 ---------------------------------------------------------------------
      1          7           0       -0.817500   -0.832500    0.000000
      2          7           0        0.272500   -0.832500    0.000000
      3          7           0        0.272500    0.287500    0.000000
      4          7           0        0.272500    1.377500    0.000000
 ---------------------------------------------------------------------

 SCF Done:  E(ROHF) =  -217.458524708     A.U. after   18 cycles
 E2 =    -0.7992959567D+00 EUMP2 =    -0.21825782066472D+03
 CCSD(T)
 CCSD(T)= -0.21828158065D+03

 The electronic state is 2-A".
 Alpha  occ. eigenvalues --  -15.51061 -15.37933 -15.33966 -15.26232  -1.44049
 Alpha  occ. eigenvalues --   -1.18052  -0.85597  -0.57790  -0.56114  -0.41241
 Alpha  occ. eigenvalues --   -0.36420  -0.30214  -0.29619  -0.02659   0.00218
 Alpha virt. eigenvalues --    0.44794   0.44836   0.60260   0.63213   0.66922
 Alpha virt. eigenvalues --    0.75142   0.75390   0.78413   0.84776   0.86134
 Alpha virt. eigenvalues --    0.91039   0.91866   1.00776   1.00938   1.01638

 Mulliken charges and spin densities:
               1          2
     1  N   -0.758750   0.632203
     2  N    0.016540   0.077918
     3  N    0.191762   0.104980
     4  N   -0.449552   0.184899
 Sum of Mulliken charges =  -1.00000   1.00000

 Dipole moment (field-independent basis, Debye):
    X=              1.9362    Y=              0.2450    Z=              0.0000  Tot=              1.9517
 Quadrupole moment (field-independent basis, Debye-Ang):
   XX=            -28.3678   YY=            -34.7764   ZZ=            -22.6489
   XY=             -3.0744   XZ=              0.0000   YZ=              0.0000

 32\CCSD(T)=-218.2815806\RMSD=7.905e-09\PG=CS [SG(N4)]\\@
 Normal termination of Gaussian 16 at Tue Feb 13 12:38:38 2024.
