 Gaussian 16, Revision A.03,
 Gaussian 16:  ES64L-G16RevA.03 25-Dec-2016

 -----------------------------------------------
 #p ROCCSD(T,MaxCyc=200)/cc-pVTZ SCF(MaxCyc=200)
 -----------------------------------------------

 --------
 N2_N2_45
 --------
 Symbolic Z-matrix:
 Charge = -1 Multiplicity = 2

                         Standard orientation:
 ---------------------------------------------------------------------
 Center     Atomic      Atomic             Coordinates (Angstroms)
 Number     Number       Type             X           Y           Z
 ---------------------------------------------------------------------
      1          7           0        0.000000    0.000000    1.890000
      2          7           0        0.000000    0.000000    0.800000
      3          7           0        0.000000    0.000000   -0.800000
      4          7           0        0.000000    0.000000   -1.890000
 ---------------------------------------------------------------------

 SCF Done:  E(ROHF) =  -217.601691043     A.U. after   12 cycles
 E2 =    -0.7910097715D+00 EUMP2 =    -0.21839270081433D+03
 CCSD(T)
 CCSD(T)= -0.21842414190D+03

 Unable to determine electronic state:  an orbital has unidentified symmetry.
 Alpha  occ. eigenvalues --  -15.34346 -15.34346 -15.33534 -15.33525  -1.18731
 Alpha  occ. eigenvalues --   -1.16662  -0.69709  -0.44943  -0.40541  -0.40120
 Alpha  occ. eigenvalues --   -0.35085  -0.34060  -0.29847  -0.09876   0.06582
 Alpha virt. eigenvalues --    0.37582   0.41956   0.51106   0.63374   0.64899
 Alpha virt. eigenvalues --    0.78390   0.78547   0.83787   0.85033   0.85347
 Alpha virt. eigenvalues --    0.90935   0.97109   0.99439   1.05470   1.11910

 Mulliken charges and spin densities:
               1          2
     1  N   -0.126241   0.248430
     2  N   -0.373759   0.251570
     3  N   -0.373759   0.251570
     4  N   -0.126241   0.248430
 Sum of Mulliken charges =  -1.00000   1.00000

 Dipole moment (field-independent basis, Debye):
    X=             -0.0000    Y=             -0.0000    Z=             -0.0000  Tot=              0.0000
 Quadrupole moment (field-independent basis, Debye-Ang):
   XX=            -22.5414   YY=            -24.2979   ZZ=            -41.7506
   XY=              0.0000   XZ=              0.0000   YZ=             -0.0000

 \PMP2-0=-218.3927008\MP4SDQ=-218.3877885\CCSD=-218.3827934\CCSD(T)=-21
 Normal termination of Gaussian 16 at Tue Feb 13 13:36:11 2024.
