 Gaussian 16, Revision A.03,
 Gaussian 16:  ES64L-G16RevA.03 25-Dec-2016

 -----------------------------------------------
 #p ROCCSD(T,MaxCyc=200)/cc-pVTZ SCF(MaxCyc=200)
 -----------------------------------------------

 ---------
 N2_N2_166
 ---------
 Symbolic Z-matrix:
 Charge = -1 Multiplicity = 2

                         Standard orientation:
 ---------------------------------------------------------------------
 Center     Atomic      Atomic             Coordinates (Angstroms)
 Number     Number       Type             X           Y           Z
 ---------------------------------------------------------------------
      1          7           0        0.578060   -2.450560   -0.000000
      2          7           0       -0.192687   -1.679813   -0.000000
      3          7           0       -0.192687    1.520187    0.000000
      4          7           0       -0.192687    2.610186    0.000000
 ---------------------------------------------------------------------

 SCF Done:  E(ROHF) =  -217.825464678     A.U. after   17 cycles
 E2 =    -0.7690416172D+00 EUMP2 =    -0.21859450629564D+03
 CCSD(T)
 CCSD(T)= -0.21862668595D+03

 The electronic state is 2-A".
 Alpha  occ. eigenvalues --  -15.41118 -15.40360 -15.40170 -15.39383  -1.22435
 Alpha  occ. eigenvalues --   -1.21521  -0.54789  -0.53461  -0.41029  -0.40202
 Alpha  occ. eigenvalues --   -0.39390  -0.37790  -0.36887  -0.35829   0.12596
 Alpha virt. eigenvalues --    0.27161   0.39296   0.40581   0.61740   0.64832
 Alpha virt. eigenvalues --    0.73272   0.75162   0.75645   0.78508   0.79399
 Alpha virt. eigenvalues --    0.85888   0.89450   0.89872   0.92815   0.97045

 Mulliken charges and spin densities:
               1          2
     1  N   -0.267345   0.246222
     2  N   -0.245930   0.266893
     3  N   -0.241535   0.256146
     4  N   -0.245190   0.230740
 Sum of Mulliken charges =  -1.00000   1.00000

 Dipole moment (field-independent basis, Debye):
    X=             -0.1247    Y=              0.2082    Z=              0.0000  Tot=              0.2427
 Quadrupole moment (field-independent basis, Debye-Ang):
   XX=            -24.3352   YY=            -49.6890   ZZ=            -24.3748
   XY=              3.7802   XZ=             -0.0000   YZ=             -0.0000

 17591\CCSD=-218.5883908\CCSD(T)=-218.626686\RMSD=6.696e-09\PG=CS [SG(N
 Normal termination of Gaussian 16 at Tue Feb 13 16:41:58 2024.
