 Gaussian 16, Revision A.03,
 Gaussian 16:  ES64L-G16RevA.03 25-Dec-2016

 -----------------------------------------------
 #p ROCCSD(T,MaxCyc=200)/cc-pVTZ SCF(MaxCyc=200)
 -----------------------------------------------

 --------
 N2_N2_78
 --------
 Symbolic Z-matrix:
 Charge = -1 Multiplicity = 2

                         Standard orientation:
 ---------------------------------------------------------------------
 Center     Atomic      Atomic             Coordinates (Angstroms)
 Number     Number       Type             X           Y           Z
 ---------------------------------------------------------------------
      1          7           0        0.000000    0.000000    2.110000
      2          7           0        0.000000    0.000000    1.020000
      3          7           0        0.000000    0.000000   -1.020000
      4          7           0        0.000000    0.000000   -2.110000
 ---------------------------------------------------------------------

 SCF Done:  E(ROHF) =  -217.785840137     A.U. after   12 cycles
 E2 =    -0.7722275994D+00 EUMP2 =    -0.21855806773659D+03
 CCSD(T)
 CCSD(T)= -0.21859125785D+03

 Unable to determine electronic state:  an orbital has unidentified symmetry.
 Alpha  occ. eigenvalues --  -15.37182 -15.37182 -15.36614 -15.36613  -1.19677
 Alpha  occ. eigenvalues --   -1.19072  -0.58885  -0.48105  -0.40453  -0.39432
 Alpha  occ. eigenvalues --   -0.36708  -0.34844  -0.33033  -0.26678   0.09713
 Alpha virt. eigenvalues --    0.35819   0.38606   0.46543   0.63287   0.65644
 Alpha virt. eigenvalues --    0.76992   0.77198   0.82053   0.82964   0.89415
 Alpha virt. eigenvalues --    0.91140   0.93825   0.96295   1.01832   1.08212

 Mulliken charges and spin densities:
               1          2
     1  N   -0.243229   0.227923
     2  N   -0.256771   0.272077
     3  N   -0.256771   0.272077
     4  N   -0.243229   0.227923
 Sum of Mulliken charges =  -1.00000   1.00000

 Dipole moment (field-independent basis, Debye):
    X=             -0.0000    Y=              0.0000    Z=             -0.0000  Tot=              0.0000
 Quadrupole moment (field-independent basis, Debye-Ang):
   XX=            -22.5720   YY=            -24.5003   ZZ=            -43.9704
   XY=              0.0000   XZ=              0.0000   YZ=             -0.0000

 01\PMP2-0=-218.5580677\MP4SDQ=-218.5564473\CCSD=-218.552454\CCSD(T)=-2
 Normal termination of Gaussian 16 at Tue Feb 13 14:32:24 2024.
