 Gaussian 16, Revision A.03,
 Gaussian 16:  ES64L-G16RevA.03 25-Dec-2016

 -----------------------------------------------
 #p ROCCSD(T,MaxCyc=200)/cc-pVTZ SCF(MaxCyc=200)
 -----------------------------------------------

 --------
 N2_N2_54
 --------
 Symbolic Z-matrix:
 Charge = -1 Multiplicity = 2

                         Standard orientation:
 ---------------------------------------------------------------------
 Center     Atomic      Atomic             Coordinates (Angstroms)
 Number     Number       Type             X           Y           Z
 ---------------------------------------------------------------------
      1          7           0        0.000000    0.000000    1.950000
      2          7           0        0.000000    0.000000    0.860000
      3          7           0        0.000000    0.000000   -0.860000
      4          7           0        0.000000    0.000000   -1.950000
 ---------------------------------------------------------------------

 SCF Done:  E(ROHF) =  -217.680231069     A.U. after   12 cycles
 E2 =    -0.7827864589D+00 EUMP2 =    -0.21846301752776D+03
 CCSD(T)
 CCSD(T)= -0.21849529884D+03

 Unable to determine electronic state:  an orbital has unidentified symmetry.
 Alpha  occ. eigenvalues --  -15.35073 -15.35073 -15.34532 -15.34527  -1.18856
 Alpha  occ. eigenvalues --   -1.17406  -0.65622  -0.45784  -0.40595  -0.39665
 Alpha  occ. eigenvalues --   -0.34860  -0.34781  -0.30895  -0.16129   0.07679
 Alpha virt. eigenvalues --    0.38011   0.40034   0.49656   0.63360   0.65098
 Alpha virt. eigenvalues --    0.78048   0.78194   0.83322   0.84654   0.86757
 Alpha virt. eigenvalues --    0.91310   0.96361   0.98717   1.05336   1.10935

 Mulliken charges and spin densities:
               1          2
     1  N   -0.185615   0.238967
     2  N   -0.314385   0.261033
     3  N   -0.314385   0.261033
     4  N   -0.185615   0.238967
 Sum of Mulliken charges =  -1.00000   1.00000

 Dipole moment (field-independent basis, Debye):
    X=             -0.0000    Y=              0.0000    Z=              0.0000  Tot=              0.0000
 Quadrupole moment (field-independent basis, Debye-Ang):
   XX=            -24.3755   YY=            -22.5516   ZZ=            -42.3121
   XY=              0.0000   XZ=              0.0000   YZ=             -0.0000

 311\PMP2-0=-218.4630175\MP4SDQ=-218.4597172\CCSD=-218.4551471\CCSD(T)=
 Normal termination of Gaussian 16 at Tue Feb 13 13:50:29 2024.
