 Gaussian 16, Revision A.03,
 Gaussian 16:  ES64L-G16RevA.03 25-Dec-2016

 -----------------------------------------------
 #p ROCCSD(T,MaxCyc=200)/cc-pVTZ SCF(MaxCyc=200)
 -----------------------------------------------

 ---------
 N2_N2_241
 ---------
 Symbolic Z-matrix:
 Charge = -1 Multiplicity = 2

                         Standard orientation:
 ---------------------------------------------------------------------
 Center     Atomic      Atomic             Coordinates (Angstroms)
 Number     Number       Type             X           Y           Z
 ---------------------------------------------------------------------
      1          7           0        0.578060   -2.950560    0.000000
      2          7           0       -0.192687   -2.179813    0.000000
      3          7           0       -0.192687    2.020186   -0.000000
      4          7           0       -0.192687    3.110187   -0.000000
 ---------------------------------------------------------------------

 SCF Done:  E(ROHF) =  -217.820796468     A.U. after   15 cycles
 E2 =    -0.7698568863D+00 EUMP2 =    -0.21859065335475D+03
 CCSD(T)
 CCSD(T)= -0.21862117790D+03

 The electronic state is 2-A".
 Alpha  occ. eigenvalues --  -15.41804 -15.41413 -15.41309 -15.40940  -1.23297
 Alpha  occ. eigenvalues --   -1.22924  -0.55508  -0.55159  -0.42027  -0.41681
 Alpha  occ. eigenvalues --   -0.39965  -0.39594  -0.37767  -0.37372   0.13154
 Alpha virt. eigenvalues --    0.23870   0.38525   0.38799   0.56952   0.63871
 Alpha virt. eigenvalues --    0.72723   0.75862   0.75950   0.76465   0.76718
 Alpha virt. eigenvalues --    0.81443   0.88756   0.89549   0.90664   0.92545

 Mulliken charges and spin densities:
               1          2
     1  N   -0.265890   0.247217
     2  N   -0.238552   0.257354
     3  N   -0.237158   0.254178
     4  N   -0.258400   0.241251
 Sum of Mulliken charges =  -1.00000   1.00000

 Dipole moment (field-independent basis, Debye):
    X=             -0.0786    Y=              0.0688    Z=             -0.0000  Tot=              0.1045
 Quadrupole moment (field-independent basis, Debye-Ang):
   XX=            -24.2677   YY=            -60.6155   ZZ=            -24.2759
   XY=              4.1829   XZ=             -0.0000   YZ=              0.0000

 65158\CCSD=-218.5835246\CCSD(T)=-218.6211779\RMSD=7.120e-09\PG=CS [SG(
 Normal termination of Gaussian 16 at Tue Feb 13 18:39:21 2024.
