 Gaussian 16, Revision A.03,
 Gaussian 16:  ES64L-G16RevA.03 25-Dec-2016

 -----------------------------------------------
 #p ROCCSD(T,MaxCyc=200)/cc-pVTZ SCF(MaxCyc=200)
 -----------------------------------------------

 ---------
 N2_N2_255
 ---------
 Symbolic Z-matrix:
 Charge = -1 Multiplicity = 2

                         Standard orientation:
 ---------------------------------------------------------------------
 Center     Atomic      Atomic             Coordinates (Angstroms)
 Number     Number       Type             X           Y           Z
 ---------------------------------------------------------------------
      1          7           0        0.000000    0.000000    3.290000
      2          7           0        0.000000    0.000000    2.200000
      3          7           0        0.000000    0.000000   -2.200000
      4          7           0        0.000000    0.000000   -3.290000
 ---------------------------------------------------------------------

 SCF Done:  E(ROHF) =  -217.820048992     A.U. after   11 cycles
 E2 =    -0.7699984506D+00 EUMP2 =    -0.21859004744292D+03
 CCSD(T)
 CCSD(T)= -0.21862057251D+03

 Unable to determine electronic state:  an orbital has unidentified symmetry.
 Alpha  occ. eigenvalues --  -15.41823 -15.41822 -15.41354 -15.41353  -1.23352
 Alpha  occ. eigenvalues --   -1.23347  -0.55640  -0.55470  -0.42208  -0.41981
 Alpha  occ. eigenvalues --   -0.40092  -0.39885  -0.37832  -0.37820   0.13229
 Alpha virt. eigenvalues --    0.23329   0.38355   0.38615   0.55141   0.64965
 Alpha virt. eigenvalues --    0.72784   0.75765   0.76059   0.76108   0.76360
 Alpha virt. eigenvalues --    0.82446   0.88688   0.89154   0.90703   0.92042

 Mulliken charges and spin densities:
               1          2
     1  N   -0.259773   0.244082
     2  N   -0.240227   0.255918
     3  N   -0.240227   0.255918
     4  N   -0.259773   0.244082
 Sum of Mulliken charges =  -1.00000   1.00000

 Dipole moment (field-independent basis, Debye):
    X=             -0.0000    Y=             -0.0000    Z=             -0.0000  Tot=              0.0000
 Quadrupole moment (field-independent basis, Debye-Ang):
   XX=            -24.2696   YY=            -22.4873   ZZ=            -67.0226
   XY=              0.0000   XZ=              0.0000   YZ=             -0.0000

 9\PMP2-0=-218.5900474\MP4SDQ=-218.5856876\CCSD=-218.5823638\CCSD(T)=-2
 Normal termination of Gaussian 16 at Tue Feb 13 19:06:00 2024.
