 Gaussian 16, Revision A.03,
 Gaussian 16:  ES64L-G16RevA.03 25-Dec-2016

 -----------------------------------------------
 #p ROCCSD(T,MaxCyc=200)/cc-pVTZ SCF(MaxCyc=200)
 -----------------------------------------------

 --------
 N2_N2_13
 --------
 Symbolic Z-matrix:
 Charge = -1 Multiplicity = 2

                         Standard orientation:
 ---------------------------------------------------------------------
 Center     Atomic      Atomic             Coordinates (Angstroms)
 Number     Number       Type             X           Y           Z
 ---------------------------------------------------------------------
      1          7           0        0.578060   -1.430560   -0.000000
      2          7           0       -0.192687   -0.659813   -0.000000
      3          7           0       -0.192687    0.500187    0.000000
      4          7           0       -0.192687    1.590186    0.000000
 ---------------------------------------------------------------------

 SCF Done:  E(ROHF) =  -217.572800620     A.U. after   18 cycles
 E2 =    -0.7797615863D+00 EUMP2 =    -0.21835256220644D+03
 CCSD(T)
 CCSD(T)= -0.21839192434D+03

 The electronic state is 2-A".
 Alpha  occ. eigenvalues --  -15.46119 -15.41365 -15.37701 -15.25183  -1.32385
 Alpha  occ. eigenvalues --   -1.17695  -0.93876  -0.55097  -0.51289  -0.44978
 Alpha  occ. eigenvalues --   -0.35478  -0.32696  -0.29299  -0.02458  -0.01801
 Alpha virt. eigenvalues --    0.40962   0.48725   0.61161   0.63295   0.73264
 Alpha virt. eigenvalues --    0.74911   0.76415   0.77697   0.85249   0.87958
 Alpha virt. eigenvalues --    0.93076   0.95962   0.97049   0.98989   1.01074

 Mulliken charges and spin densities:
               1          2
     1  N   -0.792985   0.204316
     2  N    0.111118   0.034012
     3  N    0.072230   0.237179
     4  N   -0.390363   0.524493
 Sum of Mulliken charges =  -1.00000   1.00000

 Dipole moment (field-independent basis, Debye):
    X=             -1.4303    Y=              1.9696    Z=              0.0000  Tot=              2.4341
 Quadrupole moment (field-independent basis, Debye-Ang):
   XX=            -26.1930   YY=            -41.0729   ZZ=            -22.6238
   XY=              4.1115   XZ=              0.0000   YZ=             -0.0000

 7\CCSD=-218.3496423\CCSD(T)=-218.3919243\RMSD=6.983e-09\PG=CS [SG(N4)]
 Normal termination of Gaussian 16 at Tue Feb 13 12:41:58 2024.
