 Gaussian 16, Revision A.03,
 Gaussian 16:  ES64L-G16RevA.03 25-Dec-2016

 -----------------------------------------------
 #p ROCCSD(T,MaxCyc=200)/cc-pVTZ SCF(MaxCyc=200)
 -----------------------------------------------

 --------
 N2_N2_63
 --------
 Symbolic Z-matrix:
 Charge = -1 Multiplicity = 2

                         Standard orientation:
 ---------------------------------------------------------------------
 Center     Atomic      Atomic             Coordinates (Angstroms)
 Number     Number       Type             X           Y           Z
 ---------------------------------------------------------------------
      1          7           0        0.000000    0.000000    2.010000
      2          7           0        0.000000    0.000000    0.920000
      3          7           0        0.000000    0.000000   -0.920000
      4          7           0        0.000000    0.000000   -2.010000
 ---------------------------------------------------------------------

 SCF Done:  E(ROHF) =  -217.733602824     A.U. after   12 cycles
 E2 =    -0.7774051447D+00 EUMP2 =    -0.21851100796856D+03
 CCSD(T)
 CCSD(T)= -0.21854380530D+03

 Unable to determine electronic state:  an orbital has unidentified symmetry.
 Alpha  occ. eigenvalues --  -15.35829 -15.35828 -15.35475 -15.35473  -1.19124
 Alpha  occ. eigenvalues --   -1.18091  -0.62478  -0.46660  -0.40595  -0.39459
 Alpha  occ. eigenvalues --   -0.35607  -0.34705  -0.31800  -0.20954   0.08567
 Alpha virt. eigenvalues --    0.38305   0.38309   0.48366   0.63323   0.65311
 Alpha virt. eigenvalues --    0.77659   0.77816   0.82842   0.83990   0.88057
 Alpha virt. eigenvalues --    0.91374   0.95444   0.97838   1.04831   1.09934

 Mulliken charges and spin densities:
               1          2
     1  N   -0.217514   0.232946
     2  N   -0.282486   0.267054
     3  N   -0.282486   0.267054
     4  N   -0.217514   0.232946
 Sum of Mulliken charges =  -1.00000   1.00000

 Dipole moment (field-independent basis, Debye):
    X=             -0.0000    Y=              0.0000    Z=             -0.0000  Tot=              0.0000
 Quadrupole moment (field-independent basis, Debye-Ang):
   XX=            -22.5620   YY=            -24.4371   ZZ=            -42.9008
   XY=              0.0000   XZ=              0.0000   YZ=             -0.0000

 28\PMP2-0=-218.511008\MP4SDQ=-218.5086485\CCSD=-218.5043645\CCSD(T)=-2
 Normal termination of Gaussian 16 at Tue Feb 13 14:07:39 2024.
