 Gaussian 16, Revision A.03,
 Gaussian 16:  ES64L-G16RevA.03 25-Dec-2016

 -----------------------------------------------
 #p ROCCSD(T,MaxCyc=200)/cc-pVTZ SCF(MaxCyc=200)
 -----------------------------------------------

 ---------
 N2_N2_156
 ---------
 Symbolic Z-matrix:
 Charge = -1 Multiplicity = 2

                         Standard orientation:
 ---------------------------------------------------------------------
 Center     Atomic      Atomic             Coordinates (Angstroms)
 Number     Number       Type             X           Y           Z
 ---------------------------------------------------------------------
      1          7           0        0.000000    0.000000    2.630000
      2          7           0        0.000000    0.000000    1.540000
      3          7           0        0.000000    0.000000   -1.540000
      4          7           0        0.000000    0.000000   -2.630000
 ---------------------------------------------------------------------

 SCF Done:  E(ROHF) =  -217.825855877     A.U. after   11 cycles
 E2 =    -0.7685784743D+00 EUMP2 =    -0.21859443435125D+03
 CCSD(T)
 CCSD(T)= -0.21862674910D+03

 Unable to determine electronic state:  an orbital has unidentified symmetry.
 Alpha  occ. eigenvalues --  -15.40524 -15.40523 -15.39717 -15.39717  -1.21904
 Alpha  occ. eigenvalues --   -1.21855  -0.54728  -0.53181  -0.40796  -0.40127
 Alpha  occ. eigenvalues --   -0.39405  -0.37163  -0.36438  -0.36254   0.12472
 Alpha virt. eigenvalues --    0.27768   0.38865   0.41211   0.64269   0.64343
 Alpha virt. eigenvalues --    0.73482   0.75645   0.75989   0.78639   0.78993
 Alpha virt. eigenvalues --    0.89267   0.89504   0.89876   0.92154   0.98949

 Mulliken charges and spin densities:
               1          2
     1  N   -0.249467   0.235294
     2  N   -0.250533   0.264706
     3  N   -0.250533   0.264706
     4  N   -0.249467   0.235294
 Sum of Mulliken charges =  -1.00000   1.00000

 Dipole moment (field-independent basis, Debye):
    X=             -0.0000    Y=             -0.0000    Z=             -0.0000  Tot=              0.0000
 Quadrupole moment (field-independent basis, Debye-Ang):
   XX=            -24.4156   YY=            -22.5270   ZZ=            -52.0774
   XY=              0.0000   XZ=              0.0000   YZ=             -0.0000

 Normal termination of Gaussian 16 at Tue Feb 13 16:27:28 2024.
