 Gaussian 16, Revision A.03,
 Gaussian 16:  ES64L-G16RevA.03 25-Dec-2016

 -----------------------------------------------
 #p ROCCSD(T,MaxCyc=200)/cc-pVTZ SCF(MaxCyc=200)
 -----------------------------------------------

 ---------
 N2_N2_222
 ---------
 Symbolic Z-matrix:
 Charge = -1 Multiplicity = 2

                         Standard orientation:
 ---------------------------------------------------------------------
 Center     Atomic      Atomic             Coordinates (Angstroms)
 Number     Number       Type             X           Y           Z
 ---------------------------------------------------------------------
      1          7           0        0.000000    0.000000    3.070000
      2          7           0        0.000000    0.000000    1.980000
      3          7           0        0.000000    0.000000   -1.980000
      4          7           0        0.000000    0.000000   -3.070000
 ---------------------------------------------------------------------

 SCF Done:  E(ROHF) =  -217.821097392     A.U. after   11 cycles
 E2 =    -0.7696886933D+00 EUMP2 =    -0.21859078608498D+03
 CCSD(T)
 CCSD(T)= -0.21862180485D+03

 Unable to determine electronic state:  an orbital has unidentified symmetry.
 Alpha  occ. eigenvalues --  -15.41451 -15.41450 -15.40916 -15.40916  -1.22945
 Alpha  occ. eigenvalues --   -1.22936  -0.55275  -0.54938  -0.41808  -0.41502
 Alpha  occ. eigenvalues --   -0.39767  -0.39302  -0.37430  -0.37401   0.13120
 Alpha virt. eigenvalues --    0.24406   0.38607   0.39222   0.55262   0.65600
 Alpha virt. eigenvalues --    0.72125   0.75916   0.76215   0.76725   0.76979
 Alpha virt. eigenvalues --    0.87509   0.89027   0.90357   0.92914   0.92985

 Mulliken charges and spin densities:
               1          2
     1  N   -0.254405   0.242506
     2  N   -0.245595   0.257494
     3  N   -0.245595   0.257494
     4  N   -0.254405   0.242506
 Sum of Mulliken charges =  -1.00000   1.00000

 Dipole moment (field-independent basis, Debye):
    X=             -0.0000    Y=              0.0000    Z=              0.0000  Tot=              0.0000
 Quadrupole moment (field-independent basis, Debye-Ang):
   XX=            -22.4959   YY=            -24.2987   ZZ=            -61.5819
   XY=              0.0000   XZ=              0.0000   YZ=             -0.0000

 Normal termination of Gaussian 16 at Tue Feb 13 18:06:34 2024.
