 Gaussian 16, Revision A.03,
 Gaussian 16:  ES64L-G16RevA.03 25-Dec-2016

 -----------------------------------------------
 #p ROCCSD(T,MaxCyc=200)/cc-pVTZ SCF(MaxCyc=200)
 -----------------------------------------------

 ---------
 N2_N2_152
 ---------
 Symbolic Z-matrix:
 Charge = -1 Multiplicity = 2

                         Standard orientation:
 ---------------------------------------------------------------------
 Center     Atomic      Atomic             Coordinates (Angstroms)
 Number     Number       Type             X           Y           Z
 ---------------------------------------------------------------------
      1          7           0       -0.817500   -1.772500    0.000000
      2          7           0        0.272500   -1.772500    0.000000
      3          7           0        0.272500    1.227500    0.000000
      4          7           0        0.272500    2.317500    0.000000
 ---------------------------------------------------------------------

 SCF Done:  E(ROHF) =  -217.832431793     A.U. after   17 cycles
 E2 =    -0.7686230310D+00 EUMP2 =    -0.21860105482374D+03
 CCSD(T)
 CCSD(T)= -0.21863422958D+03

 The electronic state is 2-A'.
 Alpha  occ. eigenvalues --  -15.41250 -15.40161 -15.38692 -15.38318  -1.22295
 Alpha  occ. eigenvalues --   -1.20167  -0.54292  -0.52695  -0.40466  -0.40313
 Alpha  occ. eigenvalues --   -0.38009  -0.36743  -0.36258  -0.34748   0.11700
 Alpha virt. eigenvalues --    0.30041   0.39691   0.41333   0.61833   0.64701
 Alpha virt. eigenvalues --    0.74322   0.75663   0.76503   0.78715   0.80493
 Alpha virt. eigenvalues --    0.82883   0.88923   0.90582   0.95348   0.97529

 Mulliken charges and spin densities:
               1          2
     1  N   -0.292718   0.263118
     2  N   -0.242834   0.273009
     3  N   -0.220953   0.251713
     4  N   -0.243495   0.212160
 Sum of Mulliken charges =  -1.00000   1.00000

 Dipole moment (field-independent basis, Debye):
    X=              0.1715    Y=              0.4319    Z=              0.0000  Tot=              0.4647
 Quadrupole moment (field-independent basis, Debye-Ang):
   XX=            -27.1594   YY=            -43.1745   ZZ=            -22.5234
   XY=             -2.5288   XZ=              0.0000   YZ=              0.0000

 6\CCSD(T)=-218.6342296\RMSD=4.503e-09\PG=CS [SG(N4)]\\@
 Normal termination of Gaussian 16 at Tue Feb 13 16:21:38 2024.
