 Gaussian 16, Revision A.03,
 Gaussian 16:  ES64L-G16RevA.03 25-Dec-2016

 -----------------------------------------------
 #p ROCCSD(T,MaxCyc=200)/cc-pVTZ SCF(MaxCyc=200)
 -----------------------------------------------

 ---------
 N2_N2_137
 ---------
 Symbolic Z-matrix:
 Charge = -1 Multiplicity = 2

                         Standard orientation:
 ---------------------------------------------------------------------
 Center     Atomic      Atomic             Coordinates (Angstroms)
 Number     Number       Type             X           Y           Z
 ---------------------------------------------------------------------
      1          7           0       -0.817500   -1.672500    0.000000
      2          7           0        0.272500   -1.672500    0.000000
      3          7           0        0.272500    1.127500    0.000000
      4          7           0        0.272500    2.217500    0.000000
 ---------------------------------------------------------------------

 SCF Done:  E(ROHF) =  -217.833177962     A.U. after   18 cycles
 E2 =    -0.7688239090D+00 EUMP2 =    -0.21860200187081D+03
 CCSD(T)
 CCSD(T)= -0.21863555998D+03

 The electronic state is 2-A'.
 Alpha  occ. eigenvalues --  -15.41234 -15.40044 -15.37903 -15.37506  -1.22218
 Alpha  occ. eigenvalues --   -1.19444  -0.54295  -0.52065  -0.40581  -0.40197
 Alpha  occ. eigenvalues --   -0.37357  -0.36671  -0.35141  -0.34037   0.11295
 Alpha virt. eigenvalues --    0.31328   0.39786   0.41969   0.62281   0.64948
 Alpha virt. eigenvalues --    0.75587   0.76461   0.77435   0.80207   0.81301
 Alpha virt. eigenvalues --    0.82337   0.89109   0.91692   0.95794   0.98077

 Mulliken charges and spin densities:
               1          2
     1  N   -0.304106   0.267722
     2  N   -0.245443   0.282642
     3  N   -0.207586   0.246678
     4  N   -0.242865   0.202959
 Sum of Mulliken charges =  -1.00000   1.00000

 Dipole moment (field-independent basis, Debye):
    X=              0.2286    Y=              0.6050    Z=              0.0000  Tot=              0.6468
 Quadrupole moment (field-independent basis, Debye-Ang):
   XX=            -27.2078   YY=            -41.6306   ZZ=            -22.5295
   XY=             -2.3986   XZ=              0.0000   YZ=              0.0000

 CCSD(T)=-218.63556\RMSD=4.407e-09\PG=CS [SG(N4)]\\@
 Normal termination of Gaussian 16 at Tue Feb 13 15:57:09 2024.
