 Gaussian 16, Revision A.03,
 Gaussian 16:  ES64L-G16RevA.03 25-Dec-2016

 -----------------------------------------------
 #p ROCCSD(T,MaxCyc=200)/cc-pVTZ SCF(MaxCyc=200)
 -----------------------------------------------

 ---------
 N2_N2_204
 ---------
 Symbolic Z-matrix:
 Charge = -1 Multiplicity = 2

                         Standard orientation:
 ---------------------------------------------------------------------
 Center     Atomic      Atomic             Coordinates (Angstroms)
 Number     Number       Type             X           Y           Z
 ---------------------------------------------------------------------
      1          7           0        0.000000    0.000000    2.950000
      2          7           0        0.000000    0.000000    1.860000
      3          7           0        0.000000    0.000000   -1.860000
      4          7           0        0.000000    0.000000   -2.950000
 ---------------------------------------------------------------------

 SCF Done:  E(ROHF) =  -217.822051324     A.U. after   11 cycles
 E2 =    -0.7694519087D+00 EUMP2 =    -0.21859150323273D+03
 CCSD(T)
 CCSD(T)= -0.21862284458D+03

 Unable to determine electronic state:  an orbital has unidentified symmetry.
 Alpha  occ. eigenvalues --  -15.41232 -15.41232 -15.40644 -15.40644  -1.22698
 Alpha  occ. eigenvalues --   -1.22684  -0.55080  -0.54577  -0.41563  -0.41195
 Alpha  occ. eigenvalues --   -0.39610  -0.38893  -0.37188  -0.37140   0.13016
 Alpha virt. eigenvalues --    0.25132   0.38713   0.39643   0.56729   0.65488
 Alpha virt. eigenvalues --    0.71935   0.75921   0.76225   0.77153   0.77416
 Alpha virt. eigenvalues --    0.88333   0.89235   0.90045   0.92685   0.94589

 Mulliken charges and spin densities:
               1          2
     1  N   -0.251176   0.241199
     2  N   -0.248824   0.258801
     3  N   -0.248824   0.258801
     4  N   -0.251176   0.241199
 Sum of Mulliken charges =  -1.00000   1.00000

 Dipole moment (field-independent basis, Debye):
    X=             -0.0000    Y=             -0.0000    Z=             -0.0000  Tot=              0.0000
 Quadrupole moment (field-independent basis, Debye-Ang):
   XX=            -24.3226   YY=            -22.5022   ZZ=            -58.8057
   XY=              0.0000   XZ=              0.0000   YZ=             -0.0000

 Normal termination of Gaussian 16 at Tue Feb 13 17:37:53 2024.
