 Gaussian 16, Revision A.03,
 Gaussian 16:  ES64L-G16RevA.03 25-Dec-2016

 -----------------------------------------------
 #p ROCCSD(T,MaxCyc=200)/cc-pVTZ SCF(MaxCyc=200)
 -----------------------------------------------

 ---------
 N2_N2_263
 ---------
 Symbolic Z-matrix:
 Charge = -1 Multiplicity = 2

                         Standard orientation:
 ---------------------------------------------------------------------
 Center     Atomic      Atomic             Coordinates (Angstroms)
 Number     Number       Type             X           Y           Z
 ---------------------------------------------------------------------
      1          7           0       -0.817500   -2.512500    0.000000
      2          7           0        0.272500   -2.512500    0.000000
      3          7           0        0.272500    1.967500    0.000000
      4          7           0        0.272500    3.057500    0.000000
 ---------------------------------------------------------------------

 SCF Done:  E(ROHF) =  -217.821633160     A.U. after   15 cycles
 E2 =    -0.7696438681D+00 EUMP2 =    -0.21859127702825D+03
 CCSD(T)
 CCSD(T)= -0.21862171700D+03

 The electronic state is 2-A'.
 Alpha  occ. eigenvalues --  -15.41926 -15.41418 -15.41245 -15.40900  -1.23391
 Alpha  occ. eigenvalues --   -1.22783  -0.55552  -0.55160  -0.42036  -0.41575
 Alpha  occ. eigenvalues --   -0.40015  -0.39578  -0.37859  -0.37300   0.13075
 Alpha virt. eigenvalues --    0.24060   0.38487   0.38880   0.59891   0.60829
 Alpha virt. eigenvalues --    0.73202   0.75627   0.76009   0.76162   0.76769
 Alpha virt. eigenvalues --    0.80140   0.88714   0.89771   0.90910   0.92929

 Mulliken charges and spin densities:
               1          2
     1  N   -0.258488   0.253199
     2  N   -0.249601   0.255135
     3  N   -0.232469   0.252624
     4  N   -0.259443   0.239042
 Sum of Mulliken charges =  -1.00000   1.00000

 Dipole moment (field-independent basis, Debye):
    X=              0.0346    Y=              0.0895    Z=              0.0000  Tot=              0.0960
 Quadrupole moment (field-independent basis, Debye-Ang):
   XX=            -26.9031   YY=            -58.2775   ZZ=            -22.4855
   XY=             -3.4627   XZ=              0.0000   YZ=              0.0000

 2\CCSD(T)=-218.621717\RMSD=4.602e-09\PG=CS [SG(N4)]\\@
 Normal termination of Gaussian 16 at Tue Feb 13 19:22:33 2024.
