 Gaussian 16, Revision A.03,
 Gaussian 16:  ES64L-G16RevA.03 25-Dec-2016

 -----------------------------------------------
 #p ROCCSD(T,MaxCyc=200)/cc-pVTZ SCF(MaxCyc=200)
 -----------------------------------------------

 --------
 N2_N2_35
 --------
 Symbolic Z-matrix:
 Charge = -1 Multiplicity = 2

                         Standard orientation:
 ---------------------------------------------------------------------
 Center     Atomic      Atomic             Coordinates (Angstroms)
 Number     Number       Type             X           Y           Z
 ---------------------------------------------------------------------
      1          7           0       -0.817500   -0.992500    0.000000
      2          7           0        0.272500   -0.992500    0.000000
      3          7           0        0.272500    0.447500    0.000000
      4          7           0        0.272500    1.537500    0.000000
 ---------------------------------------------------------------------

 SCF Done:  E(ROHF) =  -217.581740243     A.U. after   21 cycles
 E2 =    -0.7665407703D+00 EUMP2 =    -0.21834828101329D+03
 CCSD(T)
 CCSD(T)= -0.21839583323D+03

 The electronic state is 2-A".
 Alpha  occ. eigenvalues --  -15.44115 -15.35844 -15.32836 -15.28666  -1.27002
 Alpha  occ. eigenvalues --   -1.15428  -0.70824  -0.50887  -0.46719  -0.40586
 Alpha  occ. eigenvalues --   -0.35109  -0.33013  -0.30936  -0.07641   0.01789
 Alpha virt. eigenvalues --    0.42496   0.44124   0.52025   0.62376   0.65562
 Alpha virt. eigenvalues --    0.72259   0.77218   0.78194   0.84967   0.85884
 Alpha virt. eigenvalues --    0.92816   0.96258   0.97047   0.98769   1.03897

 Mulliken charges and spin densities:
               1          2
     1  N   -0.493460   0.054948
     2  N    0.021345   0.010036
     3  N   -0.148545   0.383289
     4  N   -0.379340   0.551728
 Sum of Mulliken charges =  -1.00000   1.00000

 Dipole moment (field-independent basis, Debye):
    X=              1.2023    Y=             -0.8675    Z=              0.0000  Tot=              1.4826
 Quadrupole moment (field-independent basis, Debye-Ang):
   XX=            -26.8365   YY=            -36.2260   ZZ=            -23.1480
   XY=             -3.3391   XZ=              0.0000   YZ=              0.0000

 \CCSD(T)=-218.3958332\RMSD=2.003e-09\PG=CS [SG(N4)]\\@
 Normal termination of Gaussian 16 at Tue Feb 13 13:18:34 2024.
