 Gaussian 16, Revision A.03,
 Gaussian 16:  ES64L-G16RevA.03 25-Dec-2016

 -----------------------------------------------
 #p ROCCSD(T,MaxCyc=200)/cc-pVTZ SCF(MaxCyc=200)
 -----------------------------------------------

 ---------
 N2_N2_225
 ---------
 Symbolic Z-matrix:
 Charge = -1 Multiplicity = 2

                         Standard orientation:
 ---------------------------------------------------------------------
 Center     Atomic      Atomic             Coordinates (Angstroms)
 Number     Number       Type             X           Y           Z
 ---------------------------------------------------------------------
      1          7           0        0.000000    0.000000    3.090000
      2          7           0        0.000000    0.000000    2.000000
      3          7           0        0.000000    0.000000   -2.000000
      4          7           0        0.000000    0.000000   -3.090000
 ---------------------------------------------------------------------

 SCF Done:  E(ROHF) =  -217.820967651     A.U. after   11 cycles
 E2 =    -0.7697227428D+00 EUMP2 =    -0.21859069039393D+03
 CCSD(T)
 CCSD(T)= -0.21862165886D+03

 Unable to determine electronic state:  an orbital has unidentified symmetry.
 Alpha  occ. eigenvalues --  -15.41486 -15.41486 -15.40959 -15.40959  -1.22985
 Alpha  occ. eigenvalues --   -1.22976  -0.55308  -0.54992  -0.41847  -0.41550
 Alpha  occ. eigenvalues --   -0.39795  -0.39363  -0.37468  -0.37441   0.13133
 Alpha virt. eigenvalues --    0.24296   0.38587   0.39159   0.55120   0.65588
 Alpha virt. eigenvalues --    0.72171   0.75909   0.76207   0.76660   0.76914
 Alpha virt. eigenvalues --    0.87260   0.88995   0.90403   0.92200   0.93028

 Mulliken charges and spin densities:
               1          2
     1  N   -0.254980   0.242688
     2  N   -0.245020   0.257312
     3  N   -0.245020   0.257312
     4  N   -0.254980   0.242688
 Sum of Mulliken charges =  -1.00000   1.00000

 Dipole moment (field-independent basis, Debye):
    X=             -0.0000    Y=              0.0000    Z=             -0.0000  Tot=              0.0000
 Quadrupole moment (field-independent basis, Debye-Ang):
   XX=            -22.4950   YY=            -24.2954   ZZ=            -62.0576
   XY=              0.0000   XZ=              0.0000   YZ=             -0.0000

 77\PMP2-0=-218.5906904\MP4SDQ=-218.5867696\CCSD=-218.583406\CCSD(T)=-2
 Normal termination of Gaussian 16 at Tue Feb 13 18:11:26 2024.
