 Gaussian 16, Revision A.03,
 Gaussian 16:  ES64L-G16RevA.03 25-Dec-2016

 -----------------------------------------------
 #p ROCCSD(T,MaxCyc=200)/cc-pVTZ SCF(MaxCyc=200)
 -----------------------------------------------

 --------
 N2_N2_19
 --------
 Symbolic Z-matrix:
 Charge = -1 Multiplicity = 2

                         Standard orientation:
 ---------------------------------------------------------------------
 Center     Atomic      Atomic             Coordinates (Angstroms)
 Number     Number       Type             X           Y           Z
 ---------------------------------------------------------------------
      1          7           0        0.578060   -1.470560   -0.000000
      2          7           0       -0.192687   -0.699813    0.000000
      3          7           0       -0.192687    0.540186    0.000000
      4          7           0       -0.192687    1.630187    0.000000
 ---------------------------------------------------------------------

 SCF Done:  E(ROHF) =  -217.593422251     A.U. after   18 cycles
 E2 =    -0.7727644896D+00 EUMP2 =    -0.21836618674073D+03
 CCSD(T)
 CCSD(T)= -0.21841030887D+03

 The electronic state is 2-A".
 Alpha  occ. eigenvalues --  -15.44846 -15.41082 -15.38467 -15.25854  -1.29087
 Alpha  occ. eigenvalues --   -1.17281  -0.89491  -0.52783  -0.48519  -0.45501
 Alpha  occ. eigenvalues --   -0.35826  -0.32859  -0.29995  -0.02829  -0.02377
 Alpha virt. eigenvalues --    0.40453   0.47925   0.59792   0.62906   0.72227
 Alpha virt. eigenvalues --    0.75257   0.76470   0.79214   0.85113   0.86327
 Alpha virt. eigenvalues --    0.92825   0.94629   0.96505   0.99949   1.01536

 Mulliken charges and spin densities:
               1          2
     1  N   -0.720321   0.138050
     2  N    0.035838   0.025052
     3  N    0.019179   0.284395
     4  N   -0.334696   0.552503
 Sum of Mulliken charges =  -1.00000   1.00000

 Dipole moment (field-independent basis, Debye):
    X=             -1.1702    Y=              2.0541    Z=              0.0000  Tot=              2.3641
 Quadrupole moment (field-independent basis, Debye-Ang):
   XX=            -26.1745   YY=            -40.8903   ZZ=            -22.7817
   XY=              3.8407   XZ=             -0.0000   YZ=              0.0000

 2771\CCSD=-218.3680674\CCSD(T)=-218.4103089\RMSD=6.578e-09\PG=CS [SG(N
 Normal termination of Gaussian 16 at Tue Feb 13 12:52:21 2024.
