 Gaussian 16, Revision A.03,
 Gaussian 16:  ES64L-G16RevA.03 25-Dec-2016

 -----------------------------------------------
 #p ROCCSD(T,MaxCyc=200)/cc-pVTZ SCF(MaxCyc=200)
 -----------------------------------------------

 ---------
 N2_N2_122
 ---------
 Symbolic Z-matrix:
 Charge = -1 Multiplicity = 2

                         Standard orientation:
 ---------------------------------------------------------------------
 Center     Atomic      Atomic             Coordinates (Angstroms)
 Number     Number       Type             X           Y           Z
 ---------------------------------------------------------------------
      1          7           0       -0.817500   -1.572500    0.000000
      2          7           0        0.272500   -1.572500    0.000000
      3          7           0        0.272500    1.027500    0.000000
      4          7           0        0.272500    2.117500    0.000000
 ---------------------------------------------------------------------

 SCF Done:  E(ROHF) =  -217.831785331     A.U. after   19 cycles
 E2 =    -0.7693050085D+00 EUMP2 =    -0.21860109033913D+03
 CCSD(T)
 CCSD(T)= -0.21863511971D+03

 The electronic state is 2-A'.
 Alpha  occ. eigenvalues --  -15.41323 -15.40061 -15.36789 -15.36365  -1.22267
 Alpha  occ. eigenvalues --   -1.18488  -0.54523  -0.51267  -0.41042  -0.40019
 Alpha  occ. eigenvalues --   -0.36730  -0.36488  -0.33644  -0.33090   0.10801
 Alpha virt. eigenvalues --    0.32767   0.39786   0.42785   0.62722   0.64726
 Alpha virt. eigenvalues --    0.75621   0.77188   0.78644   0.81740   0.82193
 Alpha virt. eigenvalues --    0.84332   0.89214   0.93368   0.96331   0.98630

 Mulliken charges and spin densities:
               1          2
     1  N   -0.321578   0.275473
     2  N   -0.251619   0.299234
     3  N   -0.187085   0.235880
     4  N   -0.239718   0.189413
 Sum of Mulliken charges =  -1.00000   1.00000

 Dipole moment (field-independent basis, Debye):
    X=              0.3154    Y=              0.8864    Z=              0.0000  Tot=              0.9408
 Quadrupole moment (field-independent basis, Debye-Ang):
   XX=            -27.2621   YY=            -40.2414   ZZ=            -22.5343
   XY=             -2.2792   XZ=              0.0000   YZ=              0.0000

 18\CCSD(T)=-218.6351197\RMSD=2.529e-09\PG=CS [SG(N4)]\\@
 Normal termination of Gaussian 16 at Tue Feb 13 15:34:28 2024.
