 Gaussian 16, Revision A.03,
 Gaussian 16:  ES64L-G16RevA.03 25-Dec-2016

 -----------------------------------------------
 #p ROCCSD(T,MaxCyc=200)/cc-pVTZ SCF(MaxCyc=200)
 -----------------------------------------------

 ---------
 N2_N2_274
 ---------
 Symbolic Z-matrix:
 Charge = -1 Multiplicity = 2

                         Standard orientation:
 ---------------------------------------------------------------------
 Center     Atomic      Atomic             Coordinates (Angstroms)
 Number     Number       Type             X           Y           Z
 ---------------------------------------------------------------------
      1          7           0        0.578060   -3.170560   -0.000000
      2          7           0       -0.192687   -2.399813   -0.000000
      3          7           0       -0.192687    2.240186    0.000000
      4          7           0       -0.192687    3.330187    0.000000
 ---------------------------------------------------------------------

 SCF Done:  E(ROHF) =  -217.820074830     A.U. after   14 cycles
 E2 =    -0.7700994671D+00 EUMP2 =    -0.21859017429663D+03
 CCSD(T)
 CCSD(T)= -0.21861905331D+03

 The electronic state is 2-A".
 Alpha  occ. eigenvalues --  -15.42121 -15.41810 -15.41673 -15.41386  -1.23643
 Alpha  occ. eigenvalues --   -1.23349  -0.55867  -0.55620  -0.42391  -0.42122
 Alpha  occ. eigenvalues --   -0.40311  -0.40064  -0.38116  -0.37808   0.13227
 Alpha virt. eigenvalues --    0.22938   0.38191   0.38415   0.57751   0.62797
 Alpha virt. eigenvalues --    0.73562   0.75638   0.75824   0.75947   0.76101
 Alpha virt. eigenvalues --    0.78320   0.88478   0.88867   0.90783   0.91538

 Mulliken charges and spin densities:
               1          2
     1  N   -0.264941   0.247630
     2  N   -0.238512   0.255873
     3  N   -0.236198   0.253560
     4  N   -0.260349   0.242937
 Sum of Mulliken charges =  -1.00000   1.00000

 Dipole moment (field-independent basis, Debye):
    X=             -0.0663    Y=              0.0548    Z=             -0.0000  Tot=              0.0860
 Quadrupole moment (field-independent basis, Debye-Ang):
   XX=            -24.2523   YY=            -66.1689   ZZ=            -24.2572
   XY=              4.3637   XZ=             -0.0000   YZ=             -0.0000

 56324\CCSD=-218.5839794\CCSD(T)=-218.6190533\RMSD=8.832e-09\PG=CS [SG(
 Normal termination of Gaussian 16 at Tue Feb 13 19:45:47 2024.
