 Gaussian 16, Revision A.03,
 Gaussian 16:  ES64L-G16RevA.03 25-Dec-2016

 -----------------------------------------------
 #p ROCCSD(T,MaxCyc=200)/cc-pVTZ SCF(MaxCyc=200)
 -----------------------------------------------

 --------
 N2_N2_68
 --------
 Symbolic Z-matrix:
 Charge = -1 Multiplicity = 2

                         Standard orientation:
 ---------------------------------------------------------------------
 Center     Atomic      Atomic             Coordinates (Angstroms)
 Number     Number       Type             X           Y           Z
 ---------------------------------------------------------------------
      1          7           0       -0.817500   -1.212500    0.000000
      2          7           0        0.272500   -1.212500    0.000000
      3          7           0        0.272500    0.667500    0.000000
      4          7           0        0.272500    1.757500    0.000000
 ---------------------------------------------------------------------

 SCF Done:  E(ROHF) =  -217.756085365     A.U. after   19 cycles
 E2 =    -0.7772244601D+00 EUMP2 =    -0.21853330982464D+03
 CCSD(T)
 CCSD(T)= -0.21856833737D+03

 The electronic state is 2-A'.
 Alpha  occ. eigenvalues --  -15.41833 -15.39349 -15.30452 -15.29914  -1.22652
 Alpha  occ. eigenvalues --   -1.13996  -0.58047  -0.51765  -0.39614  -0.38614
 Alpha  occ. eigenvalues --   -0.37257  -0.35609  -0.28494  -0.21475   0.07326
 Alpha virt. eigenvalues --    0.39382   0.40655   0.46592   0.61305   0.67213
 Alpha virt. eigenvalues --    0.73842   0.76446   0.77617   0.83979   0.86004
 Alpha virt. eigenvalues --    0.93845   0.94980   0.96727   1.02318   1.03311

 Mulliken charges and spin densities:
               1          2
     1  N   -0.192207   0.067844
     2  N   -0.062735   0.131451
     3  N   -0.392680   0.401722
     4  N   -0.352378   0.398982
 Sum of Mulliken charges =  -1.00000   1.00000

 Dipole moment (field-independent basis, Debye):
    X=             -0.2064    Y=             -2.5275    Z=              0.0000  Tot=              2.5359
 Quadrupole moment (field-independent basis, Debye-Ang):
   XX=            -26.7401   YY=            -36.9883   ZZ=            -22.4204
   XY=             -2.2238   XZ=              0.0000   YZ=              0.0000

 55\CCSD(T)=-218.5683374\RMSD=8.708e-09\PG=CS [SG(N4)]\\@
 Normal termination of Gaussian 16 at Tue Feb 13 14:16:55 2024.
