 Gaussian 16, Revision A.03,
 Gaussian 16:  ES64L-G16RevA.03 25-Dec-2016

 -----------------------------------------------
 #p ROCCSD(T,MaxCyc=200)/cc-pVTZ SCF(MaxCyc=200)
 -----------------------------------------------

 --------
 N2_N2_10
 --------
 Symbolic Z-matrix:
 Charge = -1 Multiplicity = 2

                         Standard orientation:
 ---------------------------------------------------------------------
 Center     Atomic      Atomic             Coordinates (Angstroms)
 Number     Number       Type             X           Y           Z
 ---------------------------------------------------------------------
      1          7           0        0.578060   -1.410560    0.000000
      2          7           0       -0.192687   -0.639814   -0.000000
      3          7           0       -0.192687    0.480187   -0.000000
      4          7           0       -0.192687    1.570186   -0.000000
 ---------------------------------------------------------------------

 SCF Done:  E(ROHF) =  -217.556444221     A.U. after   18 cycles
 E2 =    -0.7844770566D+00 EUMP2 =    -0.21834092127755D+03
 CCSD(T)
 CCSD(T)= -0.21837549921D+03

 The electronic state is 2-A".
 Alpha  occ. eigenvalues --  -15.46730 -15.41475 -15.37090 -15.24928  -1.34476
 Alpha  occ. eigenvalues --   -1.17857  -0.95963  -0.56443  -0.52911  -0.44460
 Alpha  occ. eigenvalues --   -0.35414  -0.32458  -0.28909  -0.02283  -0.01716
 Alpha virt. eigenvalues --    0.41353   0.49228   0.61494   0.63557   0.73679
 Alpha virt. eigenvalues --    0.74730   0.76233   0.76976   0.85345   0.88699
 Alpha virt. eigenvalues --    0.92899   0.95545   0.97719   0.99983   1.00929

 Mulliken charges and spin densities:
               1          2
     1  N   -0.827127   0.258793
     2  N    0.153034   0.039775
     3  N    0.095490   0.210590
     4  N   -0.421397   0.490842
 Sum of Mulliken charges =  -1.00000   1.00000

 Dipole moment (field-independent basis, Debye):
    X=             -1.5701    Y=              1.8685    Z=             -0.0000  Tot=              2.4406
 Quadrupole moment (field-independent basis, Debye-Ang):
   XX=            -26.1681   YY=            -41.1592   ZZ=            -22.5538
   XY=              4.2537   XZ=             -0.0000   YZ=              0.0000

 01\CCSD=-218.3335298\CCSD(T)=-218.3754992\RMSD=4.014e-09\PG=CS [SG(N4)
 Normal termination of Gaussian 16 at Tue Feb 13 12:36:51 2024.
