 Gaussian 16, Revision A.03,
 Gaussian 16:  ES64L-G16RevA.03 25-Dec-2016

 -----------------------------------------------
 #p ROCCSD(T,MaxCyc=200)/cc-pVTZ SCF(MaxCyc=200)
 -----------------------------------------------

 --------
 N2_N2_36
 --------
 Symbolic Z-matrix:
 Charge = -1 Multiplicity = 2

                         Standard orientation:
 ---------------------------------------------------------------------
 Center     Atomic      Atomic             Coordinates (Angstroms)
 Number     Number       Type             X           Y           Z
 ---------------------------------------------------------------------
      1          7           0        0.000000    0.000000    1.830000
      2          7           0        0.000000    0.000000    0.740000
      3          7           0        0.000000    0.000000   -0.740000
      4          7           0        0.000000    0.000000   -1.830000
 ---------------------------------------------------------------------

 SCF Done:  E(ROHF) =  -217.429723606     A.U. after   12 cycles
 E2 =    -0.8882359627D+00 EUMP2 =    -0.21831795956893D+03
 CCSD(T)
 CCSD(T)= -0.21831888675D+03

 Unable to determine electronic state:  an orbital has unidentified symmetry.
 Alpha  occ. eigenvalues --  -15.51128 -15.51078 -15.34888 -15.34886  -1.25038
 Alpha  occ. eigenvalues --   -1.20478  -0.81398  -0.48469  -0.46608  -0.43321
 Alpha  occ. eigenvalues --   -0.39397  -0.37847  -0.35981   0.02364   0.03431
 Alpha virt. eigenvalues --    0.35293   0.38477   0.40899   0.64748   0.65477
 Alpha virt. eigenvalues --    0.74701   0.75941   0.77781   0.83639   0.84850
 Alpha virt. eigenvalues --    0.88697   0.94393   0.95647   1.03841   1.07992

 Mulliken charges and spin densities:
               1          2
     1  N   -0.393867   0.344608
     2  N   -0.106133   0.155392
     3  N   -0.106133   0.155392
     4  N   -0.393867   0.344608
 Sum of Mulliken charges =  -1.00000   1.00000

 Dipole moment (field-independent basis, Debye):
    X=             -0.0000    Y=             -0.0000    Z=             -0.0000  Tot=              0.0000
 Quadrupole moment (field-independent basis, Debye-Ang):
   XX=            -24.9553   YY=            -23.2733   ZZ=            -46.6032
   XY=              0.0000   XZ=              0.0000   YZ=             -0.0000

 236\PMP2-0=-218.3179596\MP4SDQ=-218.2681658\CCSD=-218.2600177\CCSD(T)=
 Normal termination of Gaussian 16 at Tue Feb 13 13:20:02 2024.
