 Gaussian 16, Revision A.03,
 Gaussian 16:  ES64L-G16RevA.03 25-Dec-2016

 -----------------------------------------------
 #p ROCCSD(T,MaxCyc=200)/cc-pVTZ SCF(MaxCyc=200)
 -----------------------------------------------

 --------
 N2_N2_73
 --------
 Symbolic Z-matrix:
 Charge = -1 Multiplicity = 2

                         Standard orientation:
 ---------------------------------------------------------------------
 Center     Atomic      Atomic             Coordinates (Angstroms)
 Number     Number       Type             X           Y           Z
 ---------------------------------------------------------------------
      1          7           0        0.578060   -1.830560    0.000000
      2          7           0       -0.192687   -1.059813    0.000000
      3          7           0       -0.192687    0.900186   -0.000000
      4          7           0       -0.192687    1.990187   -0.000000
 ---------------------------------------------------------------------

 SCF Done:  E(ROHF) =  -217.788784495     A.U. after   21 cycles
 E2 =    -0.7672645928D+00 EUMP2 =    -0.21855604908744D+03
 CCSD(T)
 CCSD(T)= -0.21859443644D+03

 The electronic state is 2-A".
 Alpha  occ. eigenvalues --  -15.45094 -15.42398 -15.29719 -15.29203  -1.24847
 Alpha  occ. eigenvalues --   -1.13296  -0.60379  -0.48753  -0.40777  -0.40690
 Alpha  occ. eigenvalues --   -0.39100  -0.35437  -0.28056  -0.24357   0.07380
 Alpha virt. eigenvalues --    0.37254   0.39884   0.46661   0.62966   0.68170
 Alpha virt. eigenvalues --    0.75520   0.76200   0.79712   0.84386   0.85506
 Alpha virt. eigenvalues --    0.90106   0.94346   0.94427   1.03782   1.04020

 Mulliken charges and spin densities:
               1          2
     1  N   -0.191209   0.060158
     2  N   -0.002421   0.073528
     3  N   -0.460576   0.420407
     4  N   -0.345794   0.445907
 Sum of Mulliken charges =  -1.00000   1.00000

 Dipole moment (field-independent basis, Debye):
    X=              0.1983    Y=             -3.6770    Z=              0.0000  Tot=              3.6824
 Quadrupole moment (field-independent basis, Debye-Ang):
   XX=            -24.1153   YY=            -41.0046   ZZ=            -24.2086
   XY=              2.9699   XZ=             -0.0000   YZ=              0.0000

 8816\CCSD=-218.5549156\CCSD(T)=-218.5944364\RMSD=1.024e-09\PG=CS [SG(N
 Normal termination of Gaussian 16 at Tue Feb 13 14:25:39 2024.
