 Gaussian 16, Revision A.03,
 Gaussian 16:  ES64L-G16RevA.03 25-Dec-2016

 -----------------------------------------------
 #p ROCCSD(T,MaxCyc=200)/cc-pVTZ SCF(MaxCyc=200)
 -----------------------------------------------

 ---------
 N2_N2_240
 ---------
 Symbolic Z-matrix:
 Charge = -1 Multiplicity = 2

                         Standard orientation:
 ---------------------------------------------------------------------
 Center     Atomic      Atomic             Coordinates (Angstroms)
 Number     Number       Type             X           Y           Z
 ---------------------------------------------------------------------
      1          7           0        0.000000    0.000000    3.190000
      2          7           0        0.000000    0.000000    2.100000
      3          7           0        0.000000    0.000000   -2.100000
      4          7           0        0.000000    0.000000   -3.190000
 ---------------------------------------------------------------------

 SCF Done:  E(ROHF) =  -217.820429362     A.U. after   11 cycles
 E2 =    -0.7698732385D+00 EUMP2 =    -0.21859030260065D+03
 CCSD(T)
 CCSD(T)= -0.21862103570D+03

 Unable to determine electronic state:  an orbital has unidentified symmetry.
 Alpha  occ. eigenvalues --  -15.41658 -15.41657 -15.41163 -15.41163  -1.23174
 Alpha  occ. eigenvalues --   -1.23167  -0.55475  -0.55245  -0.42034  -0.41775
 Alpha  occ. eigenvalues --   -0.39941  -0.39641  -0.37655  -0.37637   0.13189
 Alpha virt. eigenvalues --    0.23784   0.38477   0.38868   0.54829   0.65393
 Alpha virt. eigenvalues --    0.72445   0.75852   0.76148   0.76364   0.76616
 Alpha virt. eigenvalues --    0.85175   0.88837   0.89950   0.90589   0.92597

 Mulliken charges and spin densities:
               1          2
     1  N   -0.257697   0.243468
     2  N   -0.242303   0.256532
     3  N   -0.242303   0.256532
     4  N   -0.257697   0.243468
 Sum of Mulliken charges =  -1.00000   1.00000

 Dipole moment (field-independent basis, Debye):
    X=             -0.0000    Y=              0.0000    Z=              0.0000  Tot=              0.0000
 Quadrupole moment (field-independent basis, Debye-Ang):
   XX=            -22.4908   YY=            -24.2807   ZZ=            -64.4927
   XY=              0.0000   XZ=              0.0000   YZ=             -0.0000

 294\PMP2-0=-218.5903026\MP4SDQ=-218.5861478\CCSD=-218.5828056\CCSD(T)=
 Normal termination of Gaussian 16 at Tue Feb 13 18:37:13 2024.
