 Gaussian 16, Revision A.03,
 Gaussian 16:  ES64L-G16RevA.03 25-Dec-2016

 -----------------------------------------------
 #p ROCCSD(T,MaxCyc=200)/cc-pVTZ SCF(MaxCyc=200)
 -----------------------------------------------

 -------
 N2_N2_9
 -------
 Symbolic Z-matrix:
 Charge = -1 Multiplicity = 2

                         Standard orientation:
 ---------------------------------------------------------------------
 Center     Atomic      Atomic             Coordinates (Angstroms)
 Number     Number       Type             X           Y           Z
 ---------------------------------------------------------------------
      1          7           0        0.000000    0.000000    1.650000
      2          7           0        0.000000    0.000000    0.560000
      3          7           0        0.000000    0.000000   -0.560000
      4          7           0        0.000000    0.000000   -1.650000
 ---------------------------------------------------------------------

 SCF Done:  E(ROHF) =  -217.569052508     A.U. after   12 cycles
 E2 =    -0.8098535982D+00 EUMP2 =    -0.21837890610651D+03
 CCSD(T)
 CCSD(T)= -0.21839513503D+03

 Unable to determine electronic state:  an orbital has unidentified symmetry.
 Alpha  occ. eigenvalues --  -15.47432 -15.47175 -15.30466 -15.30464  -1.33345
 Alpha  occ. eigenvalues --   -1.17763  -1.00686  -0.56257  -0.54347  -0.39794
 Alpha  occ. eigenvalues --   -0.38139  -0.33150  -0.31209  -0.01335  -0.00354
 Alpha virt. eigenvalues --    0.48886   0.51579   0.58298   0.65799   0.69947
 Alpha virt. eigenvalues --    0.72681   0.74426   0.75481   0.84487   0.85778
 Alpha virt. eigenvalues --    0.87179   0.94474   0.95688   1.05485   1.11169

 Mulliken charges and spin densities:
               1          2
     1  N   -0.337807   0.402786
     2  N   -0.162193   0.097214
     3  N   -0.162193   0.097214
     4  N   -0.337807   0.402786
 Sum of Mulliken charges =  -1.00000   1.00000

 Dipole moment (field-independent basis, Debye):
    X=             -0.0000    Y=             -0.0000    Z=             -0.0000  Tot=              0.0000
 Quadrupole moment (field-independent basis, Debye-Ang):
   XX=            -24.0224   YY=            -22.4981   ZZ=            -46.4210
   XY=             -0.0000   XZ=              0.0000   YZ=             -0.0000

 25\PMP2-0=-218.3789061\MP4SDQ=-218.3572046\CCSD=-218.3524722\CCSD(T)=-
 Normal termination of Gaussian 16 at Tue Feb 13 12:34:58 2024.
