 Gaussian 16, Revision A.03,
 Gaussian 16:  ES64L-G16RevA.03 25-Dec-2016

 -----------------------------------------------
 #p ROCCSD(T,MaxCyc=200)/cc-pVTZ SCF(MaxCyc=200)
 -----------------------------------------------

 ---------
 N2_N2_273
 ---------
 Symbolic Z-matrix:
 Charge = -1 Multiplicity = 2

                         Standard orientation:
 ---------------------------------------------------------------------
 Center     Atomic      Atomic             Coordinates (Angstroms)
 Number     Number       Type             X           Y           Z
 ---------------------------------------------------------------------
      1          7           0        0.000000    0.000000    3.410000
      2          7           0        0.000000    0.000000    2.320000
      3          7           0        0.000000    0.000000   -2.320000
      4          7           0        0.000000    0.000000   -3.410000
 ---------------------------------------------------------------------

 SCF Done:  E(ROHF) =  -217.819753840     A.U. after   11 cycles
 E2 =    -0.7701299875D+00 EUMP2 =    -0.21858988382771D+03
 CCSD(T)
 CCSD(T)= -0.21862019315D+03

 Unable to determine electronic state:  an orbital has unidentified symmetry.
 Alpha  occ. eigenvalues --  -15.42013 -15.42012 -15.41567 -15.41566  -1.23553
 Alpha  occ. eigenvalues --   -1.23550  -0.55833  -0.55713  -0.42404  -0.42207
 Alpha  occ. eigenvalues --   -0.40273  -0.40143  -0.38032  -0.38025   0.13259
 Alpha virt. eigenvalues --    0.22845   0.38198   0.38351   0.56017   0.64180
 Alpha virt. eigenvalues --    0.73233   0.75635   0.75845   0.75929   0.76099
 Alpha virt. eigenvalues --    0.79666   0.88518   0.88727   0.90747   0.91535

 Mulliken charges and spin densities:
               1          2
     1  N   -0.261117   0.244665
     2  N   -0.238883   0.255335
     3  N   -0.238883   0.255335
     4  N   -0.261117   0.244665
 Sum of Mulliken charges =  -1.00000   1.00000

 Dipole moment (field-independent basis, Debye):
    X=             -0.0000    Y=              0.0000    Z=             -0.0000  Tot=              0.0000
 Quadrupole moment (field-independent basis, Debye-Ang):
   XX=            -22.4840   YY=            -24.2599   ZZ=            -70.1845
   XY=              0.0000   XZ=              0.0000   YZ=             -0.0000

 7538\PMP2-0=-218.5898838\MP4SDQ=-218.5853097\CCSD=-218.582005\CCSD(T)=
 Normal termination of Gaussian 16 at Tue Feb 13 19:43:01 2024.
