 Gaussian 16, Revision A.03,
 Gaussian 16:  ES64L-G16RevA.03 25-Dec-2016

 -----------------------------------------------
 #p ROCCSD(T,MaxCyc=200)/cc-pVTZ SCF(MaxCyc=200)
 -----------------------------------------------

 --------
 N2_N2_44
 --------
 Symbolic Z-matrix:
 Charge = -1 Multiplicity = 2

                         Standard orientation:
 ---------------------------------------------------------------------
 Center     Atomic      Atomic             Coordinates (Angstroms)
 Number     Number       Type             X           Y           Z
 ---------------------------------------------------------------------
      1          7           0       -0.817500   -1.052500    0.000000
      2          7           0        0.272500   -1.052500    0.000000
      3          7           0        0.272500    0.507500    0.000000
      4          7           0        0.272500    1.597500    0.000000
 ---------------------------------------------------------------------

 SCF Done:  E(ROHF) =  -217.628353628     A.U. after   21 cycles
 E2 =    -0.7703672269D+00 EUMP2 =    -0.21839872085483D+03
 CCSD(T)
 CCSD(T)= -0.21844343436D+03

 The electronic state is 2-A".
 Alpha  occ. eigenvalues --  -15.45039 -15.32175 -15.31168 -15.30827  -1.24611
 Alpha  occ. eigenvalues --   -1.14180  -0.66252  -0.50688  -0.43362  -0.39324
 Alpha  occ. eigenvalues --   -0.36781  -0.33675  -0.29422  -0.11348   0.03654
 Alpha virt. eigenvalues --    0.41133   0.42589   0.50399   0.61965   0.66334
 Alpha virt. eigenvalues --    0.72323   0.77403   0.77579   0.85431   0.86123
 Alpha virt. eigenvalues --    0.93350   0.95444   0.97298   0.99425   1.04401

 Mulliken charges and spin densities:
               1          2
     1  N   -0.357629   0.040489
     2  N    0.038972   0.011724
     3  N   -0.303214   0.418534
     4  N   -0.378129   0.529253
 Sum of Mulliken charges =  -1.00000   1.00000

 Dipole moment (field-independent basis, Debye):
    X=              0.6407    Y=             -1.8316    Z=              0.0000  Tot=              1.9405
 Quadrupole moment (field-independent basis, Debye-Ang):
   XX=            -26.2107   YY=            -36.2167   ZZ=            -23.4584
   XY=             -3.1607   XZ=              0.0000   YZ=              0.0000

 \CCSD(T)=-218.4434344\RMSD=4.347e-09\PG=CS [SG(N4)]\\@
 Normal termination of Gaussian 16 at Tue Feb 13 13:34:49 2024.
