 Gaussian 16, Revision A.03,
 Gaussian 16:  ES64L-G16RevA.03 25-Dec-2016

 -----------------------------------------------
 #p ROCCSD(T,MaxCyc=200)/cc-pVTZ SCF(MaxCyc=200)
 -----------------------------------------------

 --------
 N2_N2_83
 --------
 Symbolic Z-matrix:
 Charge = -1 Multiplicity = 2

                         Standard orientation:
 ---------------------------------------------------------------------
 Center     Atomic      Atomic             Coordinates (Angstroms)
 Number     Number       Type             X           Y           Z
 ---------------------------------------------------------------------
      1          7           0       -0.817500   -1.312500    0.000000
      2          7           0        0.272500   -1.312500    0.000000
      3          7           0        0.272500    0.767500    0.000000
      4          7           0        0.272500    1.857500    0.000000
 ---------------------------------------------------------------------

 SCF Done:  E(ROHF) =  -217.799526634     A.U. after   22 cycles
 E2 =    -0.7701693554D+00 EUMP2 =    -0.21856969598915D+03
 CCSD(T)
 CCSD(T)= -0.21860630415D+03

 The electronic state is 2-A'.
 Alpha  occ. eigenvalues --  -15.43361 -15.42232 -15.30023 -15.29645  -1.23833
 Alpha  occ. eigenvalues --   -1.13519  -0.56342  -0.51426  -0.40799  -0.38943
 Alpha  occ. eigenvalues --   -0.38384  -0.35415  -0.28240  -0.25517   0.08125
 Alpha virt. eigenvalues --    0.38324   0.38409   0.46620   0.60586   0.67814
 Alpha virt. eigenvalues --    0.74640   0.75741   0.76622   0.83628   0.85701
 Alpha virt. eigenvalues --    0.93533   0.93996   0.96564   0.99522   1.02816

 Mulliken charges and spin densities:
               1          2
     1  N   -0.153063   0.072784
     2  N   -0.062098   0.109748
     3  N   -0.422976   0.408158
     4  N   -0.361863   0.409310
 Sum of Mulliken charges =  -1.00000   1.00000

 Dipole moment (field-independent basis, Debye):
    X=             -0.4484    Y=             -3.3020    Z=              0.0000  Tot=              3.3323
 Quadrupole moment (field-independent basis, Debye-Ang):
   XX=            -26.6530   YY=            -37.7165   ZZ=            -22.4858
   XY=             -2.1825   XZ=              0.0000   YZ=              0.0000

 \CCSD(T)=-218.6063041\RMSD=1.059e-09\PG=CS [SG(N4)]\\@
 Normal termination of Gaussian 16 at Tue Feb 13 14:37:52 2024.
