 Gaussian 16, Revision A.03,
 Gaussian 16:  ES64L-G16RevA.03 25-Dec-2016

 -----------------------------------------------
 #p ROCCSD(T,MaxCyc=200)/cc-pVTZ SCF(MaxCyc=200)
 -----------------------------------------------

 --------
 N2_N2_88
 --------
 Symbolic Z-matrix:
 Charge = -1 Multiplicity = 2

                         Standard orientation:
 ---------------------------------------------------------------------
 Center     Atomic      Atomic             Coordinates (Angstroms)
 Number     Number       Type             X           Y           Z
 ---------------------------------------------------------------------
      1          7           0        0.578060   -1.930560   -0.000000
      2          7           0       -0.192687   -1.159814   -0.000000
      3          7           0       -0.192687    1.000187    0.000000
      4          7           0       -0.192687    2.090186    0.000000
 ---------------------------------------------------------------------

 SCF Done:  E(ROHF) =  -217.808840752     A.U. after   27 cycles
 E2 =    -0.7683674651D+00 EUMP2 =    -0.21857720821709D+03
 CCSD(T)
 CCSD(T)= -0.21861528129D+03

 The electronic state is 2-A".
 Alpha  occ. eigenvalues --  -15.43814 -15.42827 -15.32527 -15.31403  -1.24675
 Alpha  occ. eigenvalues --   -1.15021  -0.58328  -0.48776  -0.41449  -0.40884
 Alpha  occ. eigenvalues --   -0.39047  -0.35683  -0.30908  -0.27240   0.09920
 Alpha virt. eigenvalues --    0.34208   0.37959   0.47169   0.61949   0.68030
 Alpha virt. eigenvalues --    0.74305   0.75144   0.82862   0.84013   0.86421
 Alpha virt. eigenvalues --    0.88108   0.90186   0.93711   1.03440   1.03898

 Mulliken charges and spin densities:
               1          2
     1  N   -0.368038   0.361669
     2  N   -0.343803   0.358442
     3  N   -0.105938   0.158211
     4  N   -0.182221   0.121678
 Sum of Mulliken charges =  -1.00000   1.00000

 Dipole moment (field-independent basis, Debye):
    X=             -0.5488    Y=              2.9285    Z=              0.0000  Tot=              2.9795
 Quadrupole moment (field-independent basis, Debye-Ang):
   XX=            -24.7942   YY=            -41.2202   ZZ=            -24.4036
   XY=              3.6847   XZ=              0.0000   YZ=             -0.0000

 2377\CCSD=-218.5762323\CCSD(T)=-218.6152813\RMSD=1.128e-09\PG=CS [SG(N
 Normal termination of Gaussian 16 at Tue Feb 13 14:44:56 2024.
