 Gaussian 16, Revision A.03,
 Gaussian 16:  ES64L-G16RevA.03 25-Dec-2016

 -----------------------------------------------
 #p ROCCSD(T,MaxCyc=200)/cc-pVTZ SCF(MaxCyc=200)
 -----------------------------------------------

 ---------
 N2_N2_194
 ---------
 Symbolic Z-matrix:
 Charge = -1 Multiplicity = 2

                         Standard orientation:
 ---------------------------------------------------------------------
 Center     Atomic      Atomic             Coordinates (Angstroms)
 Number     Number       Type             X           Y           Z
 ---------------------------------------------------------------------
      1          7           0       -0.817500   -2.052500    0.000000
      2          7           0        0.272500   -2.052500    0.000000
      3          7           0        0.272500    1.507500    0.000000
      4          7           0        0.272500    2.597500    0.000000
 ---------------------------------------------------------------------

 SCF Done:  E(ROHF) =  -217.827333266     A.U. after   17 cycles
 E2 =    -0.7688484205D+00 EUMP2 =    -0.21859618168691D+03
 CCSD(T)
 CCSD(T)= -0.21862830883D+03

 The electronic state is 2-A'.
 Alpha  occ. eigenvalues --  -15.41403 -15.40617 -15.40084 -15.39738  -1.22661
 Alpha  occ. eigenvalues --   -1.21547  -0.54685  -0.53959  -0.41094  -0.40516
 Alpha  occ. eigenvalues --   -0.39110  -0.38168  -0.37115  -0.36093   0.12494
 Alpha virt. eigenvalues --    0.27130   0.39286   0.40069   0.60021   0.62290
 Alpha virt. eigenvalues --    0.71510   0.76045   0.76123   0.77273   0.78606
 Alpha virt. eigenvalues --    0.83772   0.88811   0.89456   0.94554   0.95984

 Mulliken charges and spin densities:
               1          2
     1  N   -0.271765   0.256030
     2  N   -0.244123   0.260520
     3  N   -0.234314   0.254994
     4  N   -0.249798   0.228455
 Sum of Mulliken charges =  -1.00000   1.00000

 Dipole moment (field-independent basis, Debye):
    X=              0.0779    Y=              0.1757    Z=              0.0000  Tot=              0.1922
 Quadrupole moment (field-independent basis, Debye-Ang):
   XX=            -27.0348   YY=            -48.2122   ZZ=            -22.5065
   XY=             -2.8997   XZ=              0.0000   YZ=              0.0000

 98\CCSD(T)=-218.6283088\RMSD=3.989e-09\PG=CS [SG(N4)]\\@
 Normal termination of Gaussian 16 at Tue Feb 13 17:22:43 2024.
