 Gaussian 16, Revision A.03,
 Gaussian 16:  ES64L-G16RevA.03 25-Dec-2016

 -----------------------------------------------
 #p ROCCSD(T,MaxCyc=200)/cc-pVTZ SCF(MaxCyc=200)
 -----------------------------------------------

 ---------
 N2_N2_209
 ---------
 Symbolic Z-matrix:
 Charge = -1 Multiplicity = 2

                         Standard orientation:
 ---------------------------------------------------------------------
 Center     Atomic      Atomic             Coordinates (Angstroms)
 Number     Number       Type             X           Y           Z
 ---------------------------------------------------------------------
      1          7           0       -0.817500   -2.152500    0.000000
      2          7           0        0.272500   -2.152500    0.000000
      3          7           0        0.272500    1.607500    0.000000
      4          7           0        0.272500    2.697500    0.000000
 ---------------------------------------------------------------------

 SCF Done:  E(ROHF) =  -217.825617688     A.U. after   19 cycles
 E2 =    -0.7690237047D+00 EUMP2 =    -0.21859464139272D+03
 CCSD(T)
 CCSD(T)= -0.21862641554D+03

 The electronic state is 2-A'.
 Alpha  occ. eigenvalues --  -15.41488 -15.40789 -15.40412 -15.40067  -1.22810
 Alpha  occ. eigenvalues --   -1.21891  -0.54870  -0.54287  -0.41313  -0.40743
 Alpha  occ. eigenvalues --   -0.39338  -0.38589  -0.37268  -0.36428   0.12682
 Alpha virt. eigenvalues --    0.26306   0.39120   0.39742   0.59461   0.61793
 Alpha virt. eigenvalues --    0.71622   0.76006   0.76237   0.76919   0.78074
 Alpha virt. eigenvalues --    0.83653   0.89029   0.89347   0.94387   0.95511

 Mulliken charges and spin densities:
               1          2
     1  N   -0.266981   0.254762
     2  N   -0.245585   0.258480
     3  N   -0.234318   0.254699
     4  N   -0.253116   0.232059
 Sum of Mulliken charges =  -1.00000   1.00000

 Dipole moment (field-independent basis, Debye):
    X=              0.0597    Y=              0.1316    Z=              0.0000  Tot=              0.1445
 Quadrupole moment (field-independent basis, Debye-Ang):
   XX=            -26.9968   YY=            -50.2271   ZZ=            -22.5010
   XY=             -3.0258   XZ=              0.0000   YZ=              0.0000

 651\CCSD(T)=-218.6264155\RMSD=2.710e-09\PG=CS [SG(N4)]\\@
 Normal termination of Gaussian 16 at Tue Feb 13 17:45:58 2024.
