 Gaussian 16, Revision A.03,
 Gaussian 16:  ES64L-G16RevA.03 25-Dec-2016

 -----------------------------------------------
 #p ROCCSD(T,MaxCyc=200)/cc-pVTZ SCF(MaxCyc=200)
 -----------------------------------------------

 ---------
 N2_N2_215
 ---------
 Symbolic Z-matrix:
 Charge = -1 Multiplicity = 2

                         Standard orientation:
 ---------------------------------------------------------------------
 Center     Atomic      Atomic             Coordinates (Angstroms)
 Number     Number       Type             X           Y           Z
 ---------------------------------------------------------------------
      1          7           0       -0.817500   -2.192500    0.000000
      2          7           0        0.272500   -2.192500    0.000000
      3          7           0        0.272500    1.647500    0.000000
      4          7           0        0.272500    2.737500    0.000000
 ---------------------------------------------------------------------

 SCF Done:  E(ROHF) =  -217.825002434     A.U. after   17 cycles
 E2 =    -0.7690956679D+00 EUMP2 =    -0.21859409810159D+03
 CCSD(T)
 CCSD(T)= -0.21862573629D+03

 The electronic state is 2-A'.
 Alpha  occ. eigenvalues --  -15.41527 -15.40858 -15.40527 -15.40182  -1.22872
 Alpha  occ. eigenvalues --   -1.22013  -0.54946  -0.54405  -0.41398  -0.40840
 Alpha  occ. eigenvalues --   -0.39419  -0.38733  -0.37332  -0.36547   0.12746
 Alpha virt. eigenvalues --    0.26004   0.39051   0.39625   0.59344   0.61641
 Alpha virt. eigenvalues --    0.71725   0.75985   0.76266   0.76791   0.77883
 Alpha virt. eigenvalues --    0.83509   0.89065   0.89384   0.94329   0.95340

 Mulliken charges and spin densities:
               1          2
     1  N   -0.265438   0.254400
     2  N   -0.246163   0.257857
     3  N   -0.234059   0.254499
     4  N   -0.254340   0.233244
 Sum of Mulliken charges =  -1.00000   1.00000

 Dipole moment (field-independent basis, Debye):
    X=              0.0543    Y=              0.1193    Z=              0.0000  Tot=              0.1310
 Quadrupole moment (field-independent basis, Debye-Ang):
   XX=            -26.9830   YY=            -51.0614   ZZ=            -22.4989
   XY=             -3.0753   XZ=              0.0000   YZ=              0.0000

 206\CCSD(T)=-218.6257363\RMSD=7.998e-09\PG=CS [SG(N4)]\\@
 Normal termination of Gaussian 16 at Tue Feb 13 17:54:56 2024.
