 Gaussian 16, Revision A.03,
 Gaussian 16:  ES64L-G16RevA.03 25-Dec-2016

 -----------------------------------------------
 #p ROCCSD(T,MaxCyc=200)/cc-pVTZ SCF(MaxCyc=200)
 -----------------------------------------------

 ---------
 N2_N2_181
 ---------
 Symbolic Z-matrix:
 Charge = -1 Multiplicity = 2

                         Standard orientation:
 ---------------------------------------------------------------------
 Center     Atomic      Atomic             Coordinates (Angstroms)
 Number     Number       Type             X           Y           Z
 ---------------------------------------------------------------------
      1          7           0        0.578060   -2.550560    0.000000
      2          7           0       -0.192687   -1.779813    0.000000
      3          7           0       -0.192687    1.620187   -0.000000
      4          7           0       -0.192687    2.710186   -0.000000
 ---------------------------------------------------------------------

 SCF Done:  E(ROHF) =  -217.824178544     A.U. after   16 cycles
 E2 =    -0.7692303329D+00 EUMP2 =    -0.21859340887712D+03
 CCSD(T)
 CCSD(T)= -0.21862524894D+03

 The electronic state is 2-A".
 Alpha  occ. eigenvalues --  -15.41248 -15.40564 -15.40486 -15.39796  -1.22613
 Alpha  occ. eigenvalues --   -1.21879  -0.54888  -0.53918  -0.41248  -0.40576
 Alpha  occ. eigenvalues --   -0.39445  -0.38279  -0.37072  -0.36253   0.12778
 Alpha virt. eigenvalues --    0.26323   0.39135   0.40083   0.60143   0.64652
 Alpha virt. eigenvalues --    0.72449   0.75432   0.75780   0.77991   0.78684
 Alpha virt. eigenvalues --    0.85478   0.89299   0.89921   0.91906   0.96061

 Mulliken charges and spin densities:
               1          2
     1  N   -0.266170   0.246243
     2  N   -0.243951   0.263830
     3  N   -0.242737   0.255828
     4  N   -0.247142   0.234099
 Sum of Mulliken charges =  -1.00000   1.00000

 Dipole moment (field-independent basis, Debye):
    X=             -0.1119    Y=              0.1590    Z=             -0.0000  Tot=              0.1944
 Quadrupole moment (field-independent basis, Debye-Ang):
   XX=            -24.3163   YY=            -51.6818   ZZ=            -24.3488
   XY=              3.8587   XZ=             -0.0000   YZ=              0.0000

 03357\CCSD=-218.5869997\CCSD(T)=-218.6252489\RMSD=7.842e-09\PG=CS [SG(
 Normal termination of Gaussian 16 at Tue Feb 13 17:04:12 2024.
