 Gaussian 16, Revision A.03,
 Gaussian 16:  ES64L-G16RevA.03 25-Dec-2016

 -----------------------------------------------
 #p ROCCSD(T,MaxCyc=200)/cc-pVTZ SCF(MaxCyc=200)
 -----------------------------------------------

 --------
 N2_N2_52
 --------
 Symbolic Z-matrix:
 Charge = -1 Multiplicity = 2

                         Standard orientation:
 ---------------------------------------------------------------------
 Center     Atomic      Atomic             Coordinates (Angstroms)
 Number     Number       Type             X           Y           Z
 ---------------------------------------------------------------------
      1          7           0        0.578060   -1.690560    0.000000
      2          7           0       -0.192687   -0.919813    0.000000
      3          7           0       -0.192687    0.760186   -0.000000
      4          7           0       -0.192687    1.850187   -0.000000
 ---------------------------------------------------------------------

 SCF Done:  E(ROHF) =  -217.716872561     A.U. after   18 cycles
 E2 =    -0.7793142773D+00 EUMP2 =    -0.21849618683830D+03
 CCSD(T)
 CCSD(T)= -0.21853247545D+03

 The electronic state is 2-A".
 Alpha  occ. eigenvalues --  -15.42846 -15.37237 -15.31826 -15.31314  -1.22102
 Alpha  occ. eigenvalues --   -1.15372  -0.66892  -0.46545  -0.40922  -0.39748
 Alpha  occ. eigenvalues --   -0.38703  -0.35351  -0.29682  -0.16580   0.04394
 Alpha virt. eigenvalues --    0.40868   0.42686   0.46873   0.64874   0.66672
 Alpha virt. eigenvalues --    0.77190   0.77449   0.80477   0.84459   0.86609
 Alpha virt. eigenvalues --    0.90460   0.92970   0.96358   1.03853   1.05509

 Mulliken charges and spin densities:
               1          2
     1  N   -0.290741   0.071966
     2  N   -0.008237   0.059111
     3  N   -0.396943   0.395905
     4  N   -0.304079   0.473018
 Sum of Mulliken charges =  -1.00000   1.00000

 Dipole moment (field-independent basis, Debye):
    X=             -0.0710    Y=             -1.8725    Z=              0.0000  Tot=              1.8738
 Quadrupole moment (field-independent basis, Debye-Ang):
   XX=            -24.5763   YY=            -40.0628   ZZ=            -23.9217
   XY=              3.0441   XZ=             -0.0000   YZ=              0.0000

 0493\CCSD=-218.4907854\CCSD(T)=-218.5324755\RMSD=6.451e-09\PG=CS [SG(N
 Normal termination of Gaussian 16 at Tue Feb 13 13:48:56 2024.
