 Gaussian 16, Revision A.03,
 Gaussian 16:  ES64L-G16RevA.03 25-Dec-2016

 -----------------------------------------------
 #p ROCCSD(T,MaxCyc=200)/cc-pVTZ SCF(MaxCyc=200)
 -----------------------------------------------

 ---------
 N2_N2_203
 ---------
 Symbolic Z-matrix:
 Charge = -1 Multiplicity = 2

                         Standard orientation:
 ---------------------------------------------------------------------
 Center     Atomic      Atomic             Coordinates (Angstroms)
 Number     Number       Type             X           Y           Z
 ---------------------------------------------------------------------
      1          7           0       -0.817500   -2.112500    0.000000
      2          7           0        0.272500   -2.112500    0.000000
      3          7           0        0.272500    1.567500    0.000000
      4          7           0        0.272500    2.657500    0.000000
 ---------------------------------------------------------------------

 SCF Done:  E(ROHF) =  -217.826275215     A.U. after   17 cycles
 E2 =    -0.7689523001D+00 EUMP2 =    -0.21859522751467D+03
 CCSD(T)
 CCSD(T)= -0.21862714061D+03

 The electronic state is 2-A'.
 Alpha  occ. eigenvalues --  -15.41452 -15.40720 -15.40288 -15.39943  -1.22749
 Alpha  occ. eigenvalues --   -1.21761  -0.54795  -0.54162  -0.41226  -0.40649
 Alpha  occ. eigenvalues --   -0.39252  -0.38432  -0.37206  -0.36301   0.12612
 Alpha virt. eigenvalues --    0.26623   0.39187   0.39867   0.59643   0.61967
 Alpha virt. eigenvalues --    0.71549   0.76023   0.76198   0.77054   0.78277
 Alpha virt. eigenvalues --    0.83738   0.88946   0.89369   0.94449   0.95693

 Mulliken charges and spin densities:
               1          2
     1  N   -0.268730   0.255203
     2  N   -0.244997   0.259206
     3  N   -0.234459   0.254859
     4  N   -0.251813   0.230732
 Sum of Mulliken charges =  -1.00000   1.00000

 Dipole moment (field-independent basis, Debye):
    X=              0.0661    Y=              0.1469    Z=              0.0000  Tot=              0.1611
 Quadrupole moment (field-independent basis, Debye-Ang):
   XX=            -27.0114   YY=            -49.4088   ZZ=            -22.5031
   XY=             -2.9758   XZ=              0.0000   YZ=              0.0000

 605\CCSD(T)=-218.6271406\RMSD=3.675e-09\PG=CS [SG(N4)]\\@
 Normal termination of Gaussian 16 at Tue Feb 13 17:36:35 2024.
