 Gaussian 16, Revision A.03,
 Gaussian 16:  ES64L-G16RevA.03 25-Dec-2016

 -----------------------------------------------
 #p ROCCSD(T,MaxCyc=200)/cc-pVTZ SCF(MaxCyc=200)
 -----------------------------------------------

 ---------
 N2_N2_190
 ---------
 Symbolic Z-matrix:
 Charge = -1 Multiplicity = 2

                         Standard orientation:
 ---------------------------------------------------------------------
 Center     Atomic      Atomic             Coordinates (Angstroms)
 Number     Number       Type             X           Y           Z
 ---------------------------------------------------------------------
      1          7           0        0.578060   -2.610560    0.000000
      2          7           0       -0.192687   -1.839813    0.000000
      3          7           0       -0.192687    1.680187   -0.000000
      4          7           0       -0.192687    2.770186   -0.000000
 ---------------------------------------------------------------------

 SCF Done:  E(ROHF) =  -217.823468034     A.U. after   16 cycles
 E2 =    -0.7693440025D+00 EUMP2 =    -0.21859281203643D+03
 CCSD(T)
 CCSD(T)= -0.21862445476D+03

 The electronic state is 2-A".
 Alpha  occ. eigenvalues --  -15.41329 -15.40684 -15.40653 -15.40011  -1.22719
 Alpha  occ. eigenvalues --   -1.22069  -0.54966  -0.54156  -0.41375  -0.40777
 Alpha  occ. eigenvalues --   -0.39499  -0.38534  -0.37180  -0.36466   0.12865
 Alpha virt. eigenvalues --    0.25871   0.39040   0.39820   0.59227   0.64565
 Alpha virt. eigenvalues --    0.72239   0.75580   0.75846   0.77707   0.78301
 Alpha virt. eigenvalues --    0.85163   0.89211   0.90013   0.91452   0.95429

 Mulliken charges and spin densities:
               1          2
     1  N   -0.265907   0.246370
     2  N   -0.242785   0.262349
     3  N   -0.242422   0.255558
     4  N   -0.248887   0.235723
 Sum of Mulliken charges =  -1.00000   1.00000

 Dipole moment (field-independent basis, Debye):
    X=             -0.1056    Y=              0.1367    Z=             -0.0000  Tot=              0.1727
 Quadrupole moment (field-independent basis, Debye-Ang):
   XX=            -24.3067   YY=            -52.9255   ZZ=            -24.3343
   XY=              3.9067   XZ=             -0.0000   YZ=              0.0000

 \CCSD=-218.5862381\CCSD(T)=-218.6244548\RMSD=4.537e-09\PG=CS [SG(N4)]\
 Normal termination of Gaussian 16 at Tue Feb 13 17:16:56 2024.
