 Gaussian 16, Revision A.03,
 Gaussian 16:  ES64L-G16RevA.03 25-Dec-2016

 -----------------------------------------------
 #p ROCCSD(T,MaxCyc=200)/cc-pVTZ SCF(MaxCyc=200)
 -----------------------------------------------

 ---------
 N2_N2_218
 ---------
 Symbolic Z-matrix:
 Charge = -1 Multiplicity = 2

                         Standard orientation:
 ---------------------------------------------------------------------
 Center     Atomic      Atomic             Coordinates (Angstroms)
 Number     Number       Type             X           Y           Z
 ---------------------------------------------------------------------
      1          7           0       -0.817500   -2.212500    0.000000
      2          7           0        0.272500   -2.212500    0.000000
      3          7           0        0.272500    1.667500    0.000000
      4          7           0        0.272500    2.757500    0.000000
 ---------------------------------------------------------------------

 SCF Done:  E(ROHF) =  -217.824711267     A.U. after   17 cycles
 E2 =    -0.7691316401D+00 EUMP2 =    -0.21859384290716D+03
 CCSD(T)
 CCSD(T)= -0.21862541409D+03

 The electronic state is 2-A'.
 Alpha  occ. eigenvalues --  -15.41547 -15.40893 -15.40582 -15.40237  -1.22904
 Alpha  occ. eigenvalues --   -1.22072  -0.54984  -0.54461  -0.41441  -0.40888
 Alpha  occ. eigenvalues --   -0.39459  -0.38801  -0.37364  -0.36604   0.12776
 Alpha virt. eigenvalues --    0.25858   0.39017   0.39569   0.59309   0.61572
 Alpha virt. eigenvalues --    0.71786   0.75973   0.76277   0.76730   0.77792
 Alpha virt. eigenvalues --    0.83412   0.89062   0.89426   0.94302   0.95259

 Mulliken charges and spin densities:
               1          2
     1  N   -0.264740   0.254245
     2  N   -0.246444   0.257578
     3  N   -0.233904   0.254388
     4  N   -0.254912   0.233788
 Sum of Mulliken charges =  -1.00000   1.00000

 Dipole moment (field-independent basis, Debye):
    X=              0.0519    Y=              0.1141    Z=              0.0000  Tot=              0.1253
 Quadrupole moment (field-independent basis, Debye-Ang):
   XX=            -26.9764   YY=            -51.4845   ZZ=            -22.4979
   XY=             -3.0999   XZ=              0.0000   YZ=              0.0000

 183\CCSD(T)=-218.6254141\RMSD=5.584e-09\PG=CS [SG(N4)]\\@
 Normal termination of Gaussian 16 at Tue Feb 13 17:59:29 2024.
