 Gaussian 16, Revision A.03,
 Gaussian 16:  ES64L-G16RevA.03 25-Dec-2016

 -----------------------------------------------
 #p ROCCSD(T,MaxCyc=200)/cc-pVTZ SCF(MaxCyc=200)
 -----------------------------------------------

 ---------
 N2_N2_212
 ---------
 Symbolic Z-matrix:
 Charge = -1 Multiplicity = 2

                         Standard orientation:
 ---------------------------------------------------------------------
 Center     Atomic      Atomic             Coordinates (Angstroms)
 Number     Number       Type             X           Y           Z
 ---------------------------------------------------------------------
      1          7           0       -0.817500   -2.172500    0.000000
      2          7           0        0.272500   -2.172500    0.000000
      3          7           0        0.272500    1.627500    0.000000
      4          7           0        0.272500    2.717500    0.000000
 ---------------------------------------------------------------------

 SCF Done:  E(ROHF) =  -217.825304635     A.U. after   18 cycles
 E2 =    -0.7690596639D+00 EUMP2 =    -0.21859436429894D+03
 CCSD(T)
 CCSD(T)= -0.21862607011D+03

 The electronic state is 2-A'.
 Alpha  occ. eigenvalues --  -15.41507 -15.40823 -15.40470 -15.40126  -1.22841
 Alpha  occ. eigenvalues --   -1.21953  -0.54908  -0.54347  -0.41356  -0.40791
 Alpha  occ. eigenvalues --   -0.39379  -0.38662  -0.37300  -0.36488   0.12715
 Alpha virt. eigenvalues --    0.26153   0.39086   0.39683   0.59394   0.61714
 Alpha virt. eigenvalues --    0.71670   0.75996   0.76253   0.76854   0.77977
 Alpha virt. eigenvalues --    0.83588   0.89055   0.89356   0.94358   0.95425

 Mulliken charges and spin densities:
               1          2
     1  N   -0.266185   0.254571
     2  N   -0.245876   0.258157
     3  N   -0.234199   0.254603
     4  N   -0.253740   0.232668
 Sum of Mulliken charges =  -1.00000   1.00000

 Dipole moment (field-independent basis, Debye):
    X=              0.0569    Y=              0.1251    Z=              0.0000  Tot=              0.1374
 Quadrupole moment (field-independent basis, Debye-Ang):
   XX=            -26.9898   YY=            -50.6423   ZZ=            -22.4999
   XY=             -3.0506   XZ=              0.0000   YZ=              0.0000

 63\CCSD(T)=-218.6260701\RMSD=1.809e-09\PG=CS [SG(N4)]\\@
 Normal termination of Gaussian 16 at Tue Feb 13 17:50:34 2024.
