 Gaussian 16, Revision A.03,
 Gaussian 16:  ES64L-G16RevA.03 25-Dec-2016

 -----------------------------------------------
 #p ROCCSD(T,MaxCyc=200)/cc-pVTZ SCF(MaxCyc=200)
 -----------------------------------------------

 ---------
 N2_N2_272
 ---------
 Symbolic Z-matrix:
 Charge = -1 Multiplicity = 2

                         Standard orientation:
 ---------------------------------------------------------------------
 Center     Atomic      Atomic             Coordinates (Angstroms)
 Number     Number       Type             X           Y           Z
 ---------------------------------------------------------------------
      1          7           0       -0.817500   -2.572500    0.000000
      2          7           0        0.272500   -2.572500    0.000000
      3          7           0        0.272500    2.027500    0.000000
      4          7           0        0.272500    3.117500    0.000000
 ---------------------------------------------------------------------

 SCF Done:  E(ROHF) =  -217.821271992     A.U. after   15 cycles
 E2 =    -0.7697374661D+00 EUMP2 =    -0.21859100945805D+03
 CCSD(T)
 CCSD(T)= -0.21862109144D+03

 The electronic state is 2-A'.
 Alpha  occ. eigenvalues --  -15.42008 -15.41519 -15.41359 -15.41013  -1.23487
 Alpha  occ. eigenvalues --   -1.22903  -0.55658  -0.55278  -0.42143  -0.41698
 Alpha  occ. eigenvalues --   -0.40119  -0.39700  -0.37956  -0.37418   0.13109
 Alpha virt. eigenvalues --    0.23772   0.38385   0.38764   0.60026   0.60718
 Alpha virt. eigenvalues --    0.73522   0.75532   0.75898   0.76094   0.76626
 Alpha virt. eigenvalues --    0.79341   0.88639   0.89554   0.90820   0.92527

 Mulliken charges and spin densities:
               1          2
     1  N   -0.257825   0.253101
     2  N   -0.249955   0.254858
     3  N   -0.232628   0.252370
     4  N   -0.259593   0.239671
 Sum of Mulliken charges =  -1.00000   1.00000

 Dipole moment (field-independent basis, Debye):
    X=              0.0331    Y=              0.0899    Z=              0.0000  Tot=              0.0958
 Quadrupole moment (field-independent basis, Debye-Ang):
   XX=            -26.8933   YY=            -59.7326   ZZ=            -22.4837
   XY=             -3.5350   XZ=              0.0000   YZ=              0.0000

 CCSD(T)=-218.6210914\RMSD=3.598e-09\PG=CS [SG(N4)]\\@
 Normal termination of Gaussian 16 at Tue Feb 13 19:41:36 2024.
