 Gaussian 16, Revision A.03,
 Gaussian 16:  ES64L-G16RevA.03 25-Dec-2016

 -----------------------------------------------
 #p ROCCSD(T,MaxCyc=200)/cc-pVTZ SCF(MaxCyc=200)
 -----------------------------------------------

 ---------
 N2_N2_271
 ---------
 Symbolic Z-matrix:
 Charge = -1 Multiplicity = 2

                         Standard orientation:
 ---------------------------------------------------------------------
 Center     Atomic      Atomic             Coordinates (Angstroms)
 Number     Number       Type             X           Y           Z
 ---------------------------------------------------------------------
      1          7           0        0.578060   -3.150560    0.000000
      2          7           0       -0.192687   -2.379813    0.000000
      3          7           0       -0.192687    2.220186   -0.000000
      4          7           0       -0.192687    3.310187   -0.000000
 ---------------------------------------------------------------------

 SCF Done:  E(ROHF) =  -217.820118234     A.U. after   14 cycles
 E2 =    -0.7700784100D+00 EUMP2 =    -0.21859019664375D+03
 CCSD(T)
 CCSD(T)= -0.21861927504D+03

 The electronic state is 2-A".
 Alpha  occ. eigenvalues --  -15.42093 -15.41776 -15.41641 -15.41348  -1.23613
 Alpha  occ. eigenvalues --   -1.23313  -0.55835  -0.55582  -0.42360  -0.42085
 Alpha  occ. eigenvalues --   -0.40280  -0.40026  -0.38086  -0.37771   0.13223
 Alpha virt. eigenvalues --    0.23015   0.38221   0.38446   0.57652   0.62912
 Alpha virt. eigenvalues --    0.73488   0.75662   0.75843   0.75987   0.76148
 Alpha virt. eigenvalues --    0.78565   0.88503   0.88915   0.90784   0.91609

 Mulliken charges and spin densities:
               1          2
     1  N   -0.265075   0.247597
     2  N   -0.238446   0.255979
     3  N   -0.236180   0.253609
     4  N   -0.260299   0.242814
 Sum of Mulliken charges =  -1.00000   1.00000

 Dipole moment (field-independent basis, Debye):
    X=             -0.0673    Y=              0.0557    Z=              0.0000  Tot=              0.0873
 Quadrupole moment (field-independent basis, Debye-Ang):
   XX=            -24.2535   YY=            -65.6452   ZZ=            -24.2584
   XY=              4.3471   XZ=             -0.0000   YZ=              0.0000

 56875\CCSD=-218.5838467\CCSD(T)=-218.619275\RMSD=8.420e-09\PG=CS [SG(N
 Normal termination of Gaussian 16 at Tue Feb 13 19:39:30 2024.
