 Gaussian 16, Revision A.03,
 Gaussian 16:  ES64L-G16RevA.03 25-Dec-2016

 -----------------------------------------------
 #p ROCCSD(T,MaxCyc=200)/cc-pVTZ SCF(MaxCyc=200)
 -----------------------------------------------

 ---------
 N2_N2_264
 ---------
 Symbolic Z-matrix:
 Charge = -1 Multiplicity = 2

                         Standard orientation:
 ---------------------------------------------------------------------
 Center     Atomic      Atomic             Coordinates (Angstroms)
 Number     Number       Type             X           Y           Z
 ---------------------------------------------------------------------
      1          7           0        0.000000    0.000000    3.350000
      2          7           0        0.000000    0.000000    2.260000
      3          7           0        0.000000    0.000000   -2.260000
      4          7           0        0.000000    0.000000   -3.350000
 ---------------------------------------------------------------------

 SCF Done:  E(ROHF) =  -217.819882364     A.U. after   11 cycles
 E2 =    -0.7700659105D+00 EUMP2 =    -0.21858994827441D+03
 CCSD(T)
 CCSD(T)= -0.21862036114D+03

 Unable to determine electronic state:  an orbital has unidentified symmetry.
 Alpha  occ. eigenvalues --  -15.41919 -15.41919 -15.41462 -15.41462  -1.23454
 Alpha  occ. eigenvalues --   -1.23450  -0.55738  -0.55595  -0.42308  -0.42096
 Alpha  occ. eigenvalues --   -0.40183  -0.40018  -0.37933  -0.37925   0.13246
 Alpha virt. eigenvalues --    0.23080   0.38277   0.38478   0.55534   0.64605
 Alpha virt. eigenvalues --    0.73006   0.75702   0.75971   0.75997   0.76224
 Alpha virt. eigenvalues --    0.80955   0.88602   0.88908   0.90736   0.91770

 Mulliken charges and spin densities:
               1          2
     1  N   -0.260600   0.244391
     2  N   -0.239400   0.255609
     3  N   -0.239400   0.255609
     4  N   -0.260600   0.244391
 Sum of Mulliken charges =  -1.00000   1.00000

 Dipole moment (field-independent basis, Debye):
    X=             -0.0000    Y=              0.0000    Z=             -0.0000  Tot=              0.0000
 Quadrupole moment (field-independent basis, Debye-Ang):
   XX=            -24.2643   YY=            -22.4856   ZZ=            -68.5863
   XY=              0.0000   XZ=              0.0000   YZ=             -0.0000

 Normal termination of Gaussian 16 at Tue Feb 13 19:24:04 2024.
