 Gaussian 16, Revision A.03,
 Gaussian 16:  ES64L-G16RevA.03 25-Dec-2016

 -----------------------------------------------
 #p ROCCSD(T,MaxCyc=200)/cc-pVTZ SCF(MaxCyc=200)
 -----------------------------------------------

 --------
 N2_N2_69
 --------
 Symbolic Z-matrix:
 Charge = -1 Multiplicity = 2

                         Standard orientation:
 ---------------------------------------------------------------------
 Center     Atomic      Atomic             Coordinates (Angstroms)
 Number     Number       Type             X           Y           Z
 ---------------------------------------------------------------------
      1          7           0        0.000000    0.000000    2.050000
      2          7           0        0.000000    0.000000    0.960000
      3          7           0        0.000000    0.000000   -0.960000
      4          7           0        0.000000    0.000000   -2.050000
 ---------------------------------------------------------------------

 SCF Done:  E(ROHF) =  -217.758939275     A.U. after   12 cycles
 E2 =    -0.7748899622D+00 EUMP2 =    -0.21853382923765D+03
 CCSD(T)
 CCSD(T)= -0.21856683892D+03

 Unable to determine electronic state:  an orbital has unidentified symmetry.
 Alpha  occ. eigenvalues --  -15.36375 -15.36375 -15.35985 -15.35984  -1.19338
 Alpha  occ. eigenvalues --   -1.18507  -0.60822  -0.47246  -0.40559  -0.39412
 Alpha  occ. eigenvalues --   -0.36069  -0.34732  -0.32332  -0.23540   0.09068
 Alpha virt. eigenvalues --    0.37259   0.38448   0.47590   0.63301   0.65453
 Alpha virt. eigenvalues --    0.77390   0.77564   0.82523   0.83567   0.88713
 Alpha virt. eigenvalues --    0.91314   0.94794   0.97218   1.04051   1.09253

 Mulliken charges and spin densities:
               1          2
     1  N   -0.230514   0.230324
     2  N   -0.269486   0.269676
     3  N   -0.269486   0.269676
     4  N   -0.230514   0.230324
 Sum of Mulliken charges =  -1.00000   1.00000

 Dipole moment (field-independent basis, Debye):
    X=             -0.0000    Y=             -0.0000    Z=              0.0000  Tot=              0.0000
 Quadrupole moment (field-independent basis, Debye-Ang):
   XX=            -22.5673   YY=            -24.4681   ZZ=            -43.3132
   XY=              0.0000   XZ=              0.0000   YZ=             -0.0000

 93\PMP2-0=-218.5338292\MP4SDQ=-218.5318591\CCSD=-218.5277128\CCSD(T)=-
 Normal termination of Gaussian 16 at Tue Feb 13 14:18:24 2024.
