 Gaussian 16, Revision A.03,
 Gaussian 16:  ES64L-G16RevA.03 25-Dec-2016

 -----------------------------------------------
 #p ROCCSD(T,MaxCyc=200)/cc-pVTZ SCF(MaxCyc=200)
 -----------------------------------------------

 ---------
 N2_N2_226
 ---------
 Symbolic Z-matrix:
 Charge = -1 Multiplicity = 2

                         Standard orientation:
 ---------------------------------------------------------------------
 Center     Atomic      Atomic             Coordinates (Angstroms)
 Number     Number       Type             X           Y           Z
 ---------------------------------------------------------------------
      1          7           0        0.578060   -2.850560    0.000000
      2          7           0       -0.192687   -2.079814    0.000000
      3          7           0       -0.192687    1.920186   -0.000000
      4          7           0       -0.192687    3.010187   -0.000000
 ---------------------------------------------------------------------

 SCF Done:  E(ROHF) =  -217.821350272     A.U. after   18 cycles
 E2 =    -0.7697305005D+00 EUMP2 =    -0.21859108077272D+03
 CCSD(T)
 CCSD(T)= -0.21862196894D+03

 The electronic state is 2-A".
 Alpha  occ. eigenvalues --  -15.41661 -15.41213 -15.41133 -15.40706  -1.23131
 Alpha  occ. eigenvalues --   -1.22703  -0.55342  -0.54910  -0.41847  -0.41449
 Alpha  occ. eigenvalues --   -0.39812  -0.39335  -0.37600  -0.37144   0.13097
 Alpha virt. eigenvalues --    0.24375   0.38674   0.39026   0.57049   0.64175
 Alpha virt. eigenvalues --    0.72408   0.75917   0.75927   0.76767   0.77090
 Alpha virt. eigenvalues --    0.82887   0.88883   0.89999   0.90510   0.93203

 Mulliken charges and spin densities:
               1          2
     1  N   -0.265938   0.246991
     2  N   -0.239262   0.258362
     3  N   -0.238532   0.254527
     4  N   -0.256268   0.240120
 Sum of Mulliken charges =  -1.00000   1.00000

 Dipole moment (field-independent basis, Debye):
    X=             -0.0853    Y=              0.0810    Z=             -0.0000  Tot=              0.1176
 Quadrupole moment (field-independent basis, Debye-Ang):
   XX=            -24.2769   YY=            -58.2415   ZZ=            -24.2889
   XY=              4.1013   XZ=             -0.0000   YZ=              0.0000

 71657\CCSD=-218.5840083\CCSD(T)=-218.6219689\RMSD=2.402e-09\PG=CS [SG(
 Normal termination of Gaussian 16 at Tue Feb 13 18:13:14 2024.
