 Gaussian 16, Revision A.03,
 Gaussian 16:  ES64L-G16RevA.03 25-Dec-2016

 -----------------------------------------------
 #p ROCCSD(T,MaxCyc=200)/cc-pVTZ SCF(MaxCyc=200)
 -----------------------------------------------

 ---------
 N2_N2_235
 ---------
 Symbolic Z-matrix:
 Charge = -1 Multiplicity = 2

                         Standard orientation:
 ---------------------------------------------------------------------
 Center     Atomic      Atomic             Coordinates (Angstroms)
 Number     Number       Type             X           Y           Z
 ---------------------------------------------------------------------
      1          7           0        0.578060   -2.910560    0.000000
      2          7           0       -0.192687   -2.139813    0.000000
      3          7           0       -0.192687    1.980187    0.000000
      4          7           0       -0.192687    3.070186    0.000000
 ---------------------------------------------------------------------

 SCF Done:  E(ROHF) =  -217.820997649     A.U. after   15 cycles
 E2 =    -0.7698078887D+00 EUMP2 =    -0.21859080553742D+03
 CCSD(T)
 CCSD(T)= -0.21862148807D+03

 The electronic state is 2-A".
 Alpha  occ. eigenvalues --  -15.41747 -15.41335 -15.41239 -15.40850  -1.23231
 Alpha  occ. eigenvalues --   -1.22838  -0.55442  -0.55063  -0.41956  -0.41591
 Alpha  occ. eigenvalues --   -0.39903  -0.39495  -0.37701  -0.37284   0.13134
 Alpha virt. eigenvalues --    0.24065   0.38585   0.38884   0.56941   0.64007
 Alpha virt. eigenvalues --    0.72587   0.75889   0.75948   0.76580   0.76859
 Alpha virt. eigenvalues --    0.82042   0.88806   0.89717   0.90610   0.92791

 Mulliken charges and spin densities:
               1          2
     1  N   -0.265931   0.247127
     2  N   -0.238776   0.257721
     3  N   -0.237645   0.254314
     4  N   -0.257648   0.240838
 Sum of Mulliken charges =  -1.00000   1.00000

 Dipole moment (field-independent basis, Debye):
    X=             -0.0812    Y=              0.0730    Z=             -0.0000  Tot=              0.1091
 Quadrupole moment (field-independent basis, Debye-Ang):
   XX=            -24.2712   YY=            -59.6547   ZZ=            -24.2807
   XY=              4.1502   XZ=              0.0000   YZ=              0.0000

 537\CCSD=-218.5836801\CCSD(T)=-218.6214881\RMSD=7.637e-09\PG=CS [SG(N4
 Normal termination of Gaussian 16 at Tue Feb 13 18:28:43 2024.
