 Gaussian 16, Revision A.03,
 Gaussian 16:  ES64L-G16RevA.03 25-Dec-2016

 -----------------------------------------------
 #p ROCCSD(T,MaxCyc=200)/cc-pVTZ SCF(MaxCyc=200)
 -----------------------------------------------

 ---------
 N2_N2_294
 ---------
 Symbolic Z-matrix:
 Charge = -1 Multiplicity = 2

                         Standard orientation:
 ---------------------------------------------------------------------
 Center     Atomic      Atomic             Coordinates (Angstroms)
 Number     Number       Type             X           Y           Z
 ---------------------------------------------------------------------
      1          7           0        0.000000    0.000000    3.550000
      2          7           0        0.000000    0.000000    2.460000
      3          7           0        0.000000    0.000000   -2.460000
      4          7           0        0.000000    0.000000   -3.550000
 ---------------------------------------------------------------------

 SCF Done:  E(ROHF) =  -217.819569951     A.U. after   11 cycles
 E2 =    -0.7702727858D+00 EUMP2 =    -0.21858984273638D+03
 CCSD(T)
 CCSD(T)= -0.21861993915D+03

 Unable to determine electronic state:  an orbital has unidentified symmetry.
 Alpha  occ. eigenvalues --  -15.42223 -15.42223 -15.41797 -15.41796  -1.23772
 Alpha  occ. eigenvalues --   -1.23769  -0.56048  -0.55964  -0.42615  -0.42446
 Alpha  occ. eigenvalues --   -0.40481  -0.40406  -0.38250  -0.38246   0.13279
 Alpha virt. eigenvalues --    0.22349   0.38009   0.38088   0.57225   0.63041
 Alpha virt. eigenvalues --    0.73726   0.75467   0.75586   0.75759   0.75842
 Alpha virt. eigenvalues --    0.77441   0.88328   0.88420   0.90703   0.91101

 Mulliken charges and spin densities:
               1          2
     1  N   -0.261396   0.245205
     2  N   -0.238604   0.254795
     3  N   -0.238604   0.254795
     4  N   -0.261396   0.245205
 Sum of Mulliken charges =  -1.00000   1.00000

 Dipole moment (field-independent basis, Debye):
    X=             -0.0000    Y=             -0.0000    Z=             -0.0000  Tot=              0.0000
 Quadrupole moment (field-independent basis, Debye-Ang):
   XX=            -22.4811   YY=            -24.2525   ZZ=            -74.0479
   XY=              0.0000   XZ=              0.0000   YZ=             -0.0000

 \PMP2-0=-218.5898427\MP4SDQ=-218.5850522\CCSD=-218.5817664\CCSD(T)=-21
 Normal termination of Gaussian 16 at Tue Feb 13 20:46:55 2024.
