 Gaussian 16, Revision A.03,
 Gaussian 16:  ES64L-G16RevA.03 25-Dec-2016

 -----------------------------------------------
 #p ROCCSD(T,MaxCyc=200)/cc-pVTZ SCF(MaxCyc=200)
 -----------------------------------------------

 --------
 N2_N2_30
 --------
 Symbolic Z-matrix:
 Charge = -1 Multiplicity = 2

                         Standard orientation:
 ---------------------------------------------------------------------
 Center     Atomic      Atomic             Coordinates (Angstroms)
 Number     Number       Type             X           Y           Z
 ---------------------------------------------------------------------
      1          7           0        0.000000    0.000000    1.790000
      2          7           0        0.000000    0.000000    0.700000
      3          7           0        0.000000    0.000000   -0.700000
      4          7           0        0.000000    0.000000   -1.790000
 ---------------------------------------------------------------------

 SCF Done:  E(ROHF) =  -217.476879722     A.U. after   12 cycles
 E2 =    -0.8686279009D+00 EUMP2 =    -0.21834550762308D+03
 CCSD(T)
 CCSD(T)= -0.21835063455D+03

 Unable to determine electronic state:  an orbital has unidentified symmetry.
 Alpha  occ. eigenvalues --  -15.50459 -15.50394 -15.33977 -15.33976  -1.25740
 Alpha  occ. eigenvalues --   -1.19906  -0.85629  -0.49528  -0.47634  -0.42570
 Alpha  occ. eigenvalues --   -0.39241  -0.36942  -0.35058   0.01693   0.02716
 Alpha virt. eigenvalues --    0.40290   0.41918   0.42799   0.65064   0.65540
 Alpha virt. eigenvalues --    0.74827   0.76041   0.76095   0.84113   0.85354
 Alpha virt. eigenvalues --    0.87738   0.94632   0.95870   1.04143   1.08626

 Mulliken charges and spin densities:
               1          2
     1  N   -0.373530   0.355844
     2  N   -0.126470   0.144156
     3  N   -0.126470   0.144156
     4  N   -0.373530   0.355844
 Sum of Mulliken charges =  -1.00000   1.00000

 Dipole moment (field-independent basis, Debye):
    X=             -0.0000    Y=             -0.0000    Z=             -0.0000  Tot=              0.0000
 Quadrupole moment (field-independent basis, Debye-Ang):
   XX=            -24.7637   YY=            -23.1179   ZZ=            -46.5386
   XY=              0.0000   XZ=              0.0000   YZ=             -0.0000

 97\PMP2-0=-218.3455076\MP4SDQ=-218.3032271\CCSD=-218.2961748\CCSD(T)=-
 Normal termination of Gaussian 16 at Tue Feb 13 13:09:40 2024.
