 Gaussian 16, Revision A.03,
 Gaussian 16:  ES64L-G16RevA.03 25-Dec-2016

 -----------------------------------------------
 #p ROCCSD(T,MaxCyc=200)/cc-pVTZ SCF(MaxCyc=200)
 -----------------------------------------------

 ---------
 N2_N2_121
 ---------
 Symbolic Z-matrix:
 Charge = -1 Multiplicity = 2

                         Standard orientation:
 ---------------------------------------------------------------------
 Center     Atomic      Atomic             Coordinates (Angstroms)
 Number     Number       Type             X           Y           Z
 ---------------------------------------------------------------------
      1          7           0        0.578060   -2.150560    0.000000
      2          7           0       -0.192687   -1.379814    0.000000
      3          7           0       -0.192687    1.220187   -0.000000
      4          7           0       -0.192687    2.310186   -0.000000
 ---------------------------------------------------------------------

 SCF Done:  E(ROHF) =  -217.826766712     A.U. after   17 cycles
 E2 =    -0.7690801956D+00 EUMP2 =    -0.21859584690799D+03
 CCSD(T)
 CCSD(T)= -0.21862912150D+03

 The electronic state is 2-A".
 Alpha  occ. eigenvalues --  -15.40853 -15.39869 -15.38499 -15.37331  -1.22051
 Alpha  occ. eigenvalues --   -1.19834  -0.55177  -0.51379  -0.40436  -0.39729
 Alpha  occ. eigenvalues --   -0.38609  -0.36564  -0.35556  -0.33330   0.11653
 Alpha virt. eigenvalues --    0.30483   0.39704   0.42720   0.64450   0.65191
 Alpha virt. eigenvalues --    0.74621   0.75493   0.80202   0.80379   0.82833
 Alpha virt. eigenvalues --    0.86934   0.89745   0.91130   0.98605   1.00841

 Mulliken charges and spin densities:
               1          2
     1  N   -0.283851   0.254752
     2  N   -0.254679   0.283889
     3  N   -0.215773   0.249839
     4  N   -0.245698   0.211519
 Sum of Mulliken charges =  -1.00000   1.00000

 Dipole moment (field-independent basis, Debye):
    X=             -0.2055    Y=              0.5947    Z=             -0.0000  Tot=              0.6292
 Quadrupole moment (field-independent basis, Debye-Ang):
   XX=            -24.4365   YY=            -44.4068   ZZ=            -24.4496
   XY=              3.5843   XZ=             -0.0000   YZ=              0.0000

 39866\CCSD=-218.5906264\CCSD(T)=-218.6291215\RMSD=8.049e-09\PG=CS [SG(
 Normal termination of Gaussian 16 at Tue Feb 13 15:32:56 2024.
