 Gaussian 16, Revision A.03,
 Gaussian 16:  ES64L-G16RevA.03 25-Dec-2016

 -----------------------------------------------
 #p ROCCSD(T,MaxCyc=200)/cc-pVTZ SCF(MaxCyc=200)
 -----------------------------------------------

 ---------
 N2_N2_252
 ---------
 Symbolic Z-matrix:
 Charge = -1 Multiplicity = 2

                         Standard orientation:
 ---------------------------------------------------------------------
 Center     Atomic      Atomic             Coordinates (Angstroms)
 Number     Number       Type             X           Y           Z
 ---------------------------------------------------------------------
      1          7           0        0.000000    0.000000    3.270000
      2          7           0        0.000000    0.000000    2.180000
      3          7           0        0.000000    0.000000   -2.180000
      4          7           0        0.000000    0.000000   -3.270000
 ---------------------------------------------------------------------

 SCF Done:  E(ROHF) =  -217.820114110     A.U. after   11 cycles
 E2 =    -0.7699749030D+00 EUMP2 =    -0.21859008901326D+03
 CCSD(T)
 CCSD(T)= -0.21862065353D+03

 Unable to determine electronic state:  an orbital has unidentified symmetry.
 Alpha  occ. eigenvalues --  -15.41790 -15.41790 -15.41317 -15.41316  -1.23317
 Alpha  occ. eigenvalues --   -1.23312  -0.55608  -0.55427  -0.42174  -0.41941
 Alpha  occ. eigenvalues --   -0.40062  -0.39839  -0.37797  -0.37785   0.13222
 Alpha virt. eigenvalues --    0.23416   0.38380   0.38663   0.55040   0.65069
 Alpha virt. eigenvalues --    0.72712   0.75784   0.76079   0.76156   0.76408
 Alpha virt. eigenvalues --    0.82980   0.88717   0.89261   0.90686   0.92143

 Mulliken charges and spin densities:
               1          2
     1  N   -0.259425   0.243971
     2  N   -0.240575   0.256029
     3  N   -0.240575   0.256029
     4  N   -0.259425   0.243971
 Sum of Mulliken charges =  -1.00000   1.00000

 Dipole moment (field-independent basis, Debye):
    X=             -0.0000    Y=              0.0000    Z=              0.0000  Tot=              0.0000
 Quadrupole moment (field-independent basis, Debye-Ang):
   XX=            -22.4880   YY=            -24.2716   ZZ=            -66.5090
   XY=              0.0000   XZ=              0.0000   YZ=             -0.0000

 141\PMP2-0=-218.590089\MP4SDQ=-218.5857681\CCSD=-218.5824408\CCSD(T)=-
 Normal termination of Gaussian 16 at Tue Feb 13 18:58:58 2024.
