 Gaussian 16, Revision A.03,
 Gaussian 16:  ES64L-G16RevA.03 25-Dec-2016

 -----------------------------------------------
 #p ROCCSD(T,MaxCyc=200)/cc-pVTZ SCF(MaxCyc=200)
 -----------------------------------------------

 ---------
 N2_N2_139
 ---------
 Symbolic Z-matrix:
 Charge = -1 Multiplicity = 2

                         Standard orientation:
 ---------------------------------------------------------------------
 Center     Atomic      Atomic             Coordinates (Angstroms)
 Number     Number       Type             X           Y           Z
 ---------------------------------------------------------------------
      1          7           0        0.578060   -2.270560    0.000000
      2          7           0       -0.192687   -1.499813    0.000000
      3          7           0       -0.192687    1.340186   -0.000000
      4          7           0       -0.192687    2.430187   -0.000000
 ---------------------------------------------------------------------

 SCF Done:  E(ROHF) =  -217.827368310     A.U. after   17 cycles
 E2 =    -0.7688510391D+00 EUMP2 =    -0.21859621934918D+03
 CCSD(T)
 CCSD(T)= -0.21862903314D+03

 The electronic state is 2-A".
 Alpha  occ. eigenvalues --  -15.40910 -15.40005 -15.39373 -15.38369  -1.22143
 Alpha  occ. eigenvalues --   -1.20673  -0.54823  -0.52372  -0.40640  -0.39473
 Alpha  occ. eigenvalues --   -0.39359  -0.36761  -0.36468  -0.34673   0.12120
 Alpha virt. eigenvalues --    0.28988   0.39580   0.41708   0.63936   0.65006
 Alpha virt. eigenvalues --    0.74727   0.75451   0.77017   0.79569   0.81037
 Alpha virt. eigenvalues --    0.86494   0.89696   0.90320   0.95442   0.99219

 Mulliken charges and spin densities:
               1          2
     1  N   -0.273818   0.248356
     2  N   -0.249645   0.275046
     3  N   -0.230443   0.254916
     4  N   -0.246094   0.221682
 Sum of Mulliken charges =  -1.00000   1.00000

 Dipole moment (field-independent basis, Debye):
    X=             -0.1607    Y=              0.3688    Z=             -0.0000  Tot=              0.4023
 Quadrupole moment (field-independent basis, Debye-Ang):
   XX=            -24.3836   YY=            -46.3805   ZZ=            -24.4236
   XY=              3.6505   XZ=             -0.0000   YZ=              0.0000

 469\CCSD=-218.5906488\CCSD(T)=-218.6290331\RMSD=3.930e-09\PG=CS [SG(N4
 Normal termination of Gaussian 16 at Tue Feb 13 16:00:11 2024.
