 Gaussian 16, Revision A.03,
 Gaussian 16:  ES64L-G16RevA.03 25-Dec-2016

 -----------------------------------------------
 #p ROCCSD(T,MaxCyc=200)/cc-pVTZ SCF(MaxCyc=200)
 -----------------------------------------------

 --------
 N2_N2_34
 --------
 Symbolic Z-matrix:
 Charge = -1 Multiplicity = 2

                         Standard orientation:
 ---------------------------------------------------------------------
 Center     Atomic      Atomic             Coordinates (Angstroms)
 Number     Number       Type             X           Y           Z
 ---------------------------------------------------------------------
      1          7           0        0.578060   -1.570560    0.000000
      2          7           0       -0.192687   -0.799813    0.000000
      3          7           0       -0.192687    0.640187   -0.000000
      4          7           0       -0.192687    1.730186   -0.000000
 ---------------------------------------------------------------------

 SCF Done:  E(ROHF) =  -217.634722153     A.U. after   17 cycles
 E2 =    -0.7762609258D+00 EUMP2 =    -0.21841098307868D+03
 CCSD(T)
 CCSD(T)= -0.21845173045D+03

 The electronic state is 2-A".
 Alpha  occ. eigenvalues --  -15.41384 -15.38482 -15.36511 -15.30001  -1.22974
 Alpha  occ. eigenvalues --   -1.17168  -0.78037  -0.46731  -0.45490  -0.41914
 Alpha  occ. eigenvalues --   -0.37760  -0.33350  -0.31255  -0.07126  -0.01020
 Alpha virt. eigenvalues --    0.41460   0.45306   0.52540   0.63826   0.68735
 Alpha virt. eigenvalues --    0.76723   0.76836   0.81262   0.84745   0.85756
 Alpha virt. eigenvalues --    0.90187   0.93752   0.97040   1.02723   1.03470

 Mulliken charges and spin densities:
               1          2
     1  N   -0.502073   0.076885
     2  N   -0.039517   0.024221
     3  N   -0.188138   0.362759
     4  N   -0.270271   0.536136
 Sum of Mulliken charges =  -1.00000   1.00000

 Dipole moment (field-independent basis, Debye):
    X=             -0.5636    Y=              0.8203    Z=             -0.0000  Tot=              0.9953
 Quadrupole moment (field-independent basis, Debye-Ang):
   XX=            -25.5483   YY=            -40.2836   ZZ=            -23.3131
   XY=              3.2893   XZ=             -0.0000   YZ=              0.0000

 21\CCSD=-218.4095225\CCSD(T)=-218.4517304\RMSD=7.786e-09\PG=CS [SG(N4)
 Normal termination of Gaussian 16 at Tue Feb 13 13:16:38 2024.
