 Gaussian 16, Revision A.03,
 Gaussian 16:  ES64L-G16RevA.03 25-Dec-2016

 -----------------------------------------------
 #p ROCCSD(T,MaxCyc=200)/cc-pVTZ SCF(MaxCyc=200)
 -----------------------------------------------

 ---------
 N2_N2_275
 ---------
 Symbolic Z-matrix:
 Charge = -1 Multiplicity = 2

                         Standard orientation:
 ---------------------------------------------------------------------
 Center     Atomic      Atomic             Coordinates (Angstroms)
 Number     Number       Type             X           Y           Z
 ---------------------------------------------------------------------
      1          7           0       -0.817500   -2.592500    0.000000
      2          7           0        0.272500   -2.592500    0.000000
      3          7           0        0.272500    2.047500    0.000000
      4          7           0        0.272500    3.137500    0.000000
 ---------------------------------------------------------------------

 SCF Done:  E(ROHF) =  -217.821166727     A.U. after   15 cycles
 E2 =    -0.7697678789D+00 EUMP2 =    -0.21859093460557D+03
 CCSD(T)
 CCSD(T)= -0.21862087949D+03

 The electronic state is 2-A'.
 Alpha  occ. eigenvalues --  -15.42036 -15.41552 -15.41396 -15.41050  -1.23518
 Alpha  occ. eigenvalues --   -1.22942  -0.55693  -0.55316  -0.42178  -0.41739
 Alpha  occ. eigenvalues --   -0.40153  -0.39740  -0.37987  -0.37456   0.13119
 Alpha virt. eigenvalues --    0.23680   0.38352   0.38727   0.60061   0.60684
 Alpha virt. eigenvalues --    0.73624   0.75499   0.75863   0.76070   0.76582
 Alpha virt. eigenvalues --    0.79087   0.88613   0.89479   0.90811   0.92407

 Mulliken charges and spin densities:
               1          2
     1  N   -0.257626   0.253068
     2  N   -0.250054   0.254772
     3  N   -0.232709   0.252297
     4  N   -0.259611   0.239863
 Sum of Mulliken charges =  -1.00000   1.00000

 Dipole moment (field-independent basis, Debye):
    X=              0.0327    Y=              0.0901    Z=              0.0000  Tot=              0.0958
 Quadrupole moment (field-independent basis, Debye-Ang):
   XX=            -26.8904   YY=            -60.2247   ZZ=            -22.4831
   XY=             -3.5590   XZ=              0.0000   YZ=              0.0000

 853\CCSD(T)=-218.6208795\RMSD=3.393e-09\PG=CS [SG(N4)]\\@
 Normal termination of Gaussian 16 at Tue Feb 13 19:48:02 2024.
