 Gaussian 16, Revision A.03,
 Gaussian 16:  ES64L-G16RevA.03 25-Dec-2016

 -----------------------------------------------
 #p ROCCSD(T,MaxCyc=200)/cc-pVTZ SCF(MaxCyc=200)
 -----------------------------------------------

 ---------
 N2_N2_127
 ---------
 Symbolic Z-matrix:
 Charge = -1 Multiplicity = 2

                         Standard orientation:
 ---------------------------------------------------------------------
 Center     Atomic      Atomic             Coordinates (Angstroms)
 Number     Number       Type             X           Y           Z
 ---------------------------------------------------------------------
      1          7           0        0.578060   -2.190560   -0.000000
      2          7           0       -0.192687   -1.419813   -0.000000
      3          7           0       -0.192687    1.260186    0.000000
      4          7           0       -0.192687    2.350187    0.000000
 ---------------------------------------------------------------------

 SCF Done:  E(ROHF) =  -217.827295806     A.U. after   17 cycles
 E2 =    -0.7689517141D+00 EUMP2 =    -0.21859624751964D+03
 CCSD(T)
 CCSD(T)= -0.21862935897D+03

 The electronic state is 2-A".
 Alpha  occ. eigenvalues --  -15.40855 -15.39894 -15.38840 -15.37726  -1.22062
 Alpha  occ. eigenvalues --   -1.20151  -0.55012  -0.51739  -0.40492  -0.39621
 Alpha  occ. eigenvalues --   -0.38882  -0.36584  -0.35915  -0.33854   0.11825
 Alpha virt. eigenvalues --    0.29957   0.39676   0.42349   0.64458   0.65004
 Alpha virt. eigenvalues --    0.74637   0.75458   0.79231   0.80098   0.82111
 Alpha virt. eigenvalues --    0.86777   0.89750   0.90810   0.97382   1.00291

 Mulliken charges and spin densities:
               1          2
     1  N   -0.279717   0.251789
     2  N   -0.252456   0.280452
     3  N   -0.221304   0.252244
     4  N   -0.246522   0.215514
 Sum of Mulliken charges =  -1.00000   1.00000

 Dipole moment (field-independent basis, Debye):
    X=             -0.1875    Y=              0.5012    Z=              0.0000  Tot=              0.5352
 Quadrupole moment (field-independent basis, Debye-Ang):
   XX=            -24.4159   YY=            -45.0421   ZZ=            -24.4423
   XY=              3.6034   XZ=             -0.0000   YZ=             -0.0000

 42928\CCSD=-218.5909094\CCSD(T)=-218.629359\RMSD=5.673e-09\PG=CS [SG(N
 Normal termination of Gaussian 16 at Tue Feb 13 15:41:56 2024.
