 Gaussian 16, Revision A.03,
 Gaussian 16:  ES64L-G16RevA.03 25-Dec-2016

 -----------------------------------------------
 #p ROCCSD(T,MaxCyc=200)/cc-pVTZ SCF(MaxCyc=200)
 -----------------------------------------------

 ---------
 N2_N2_192
 ---------
 Symbolic Z-matrix:
 Charge = -1 Multiplicity = 2

                         Standard orientation:
 ---------------------------------------------------------------------
 Center     Atomic      Atomic             Coordinates (Angstroms)
 Number     Number       Type             X           Y           Z
 ---------------------------------------------------------------------
      1          7           0        0.000000    0.000000    2.870000
      2          7           0        0.000000    0.000000    1.780000
      3          7           0        0.000000    0.000000   -1.780000
      4          7           0        0.000000    0.000000   -2.870000
 ---------------------------------------------------------------------

 SCF Done:  E(ROHF) =  -217.822863546     A.U. after   11 cycles
 E2 =    -0.7692617292D+00 EUMP2 =    -0.21859212527537D+03
 CCSD(T)
 CCSD(T)= -0.21862369929D+03

 Unable to determine electronic state:  an orbital has unidentified symmetry.
 Alpha  occ. eigenvalues --  -15.41077 -15.41077 -15.40445 -15.40444  -1.22521
 Alpha  occ. eigenvalues --   -1.22502  -0.54960  -0.54298  -0.41388  -0.40967
 Alpha  occ. eigenvalues --   -0.39522  -0.38566  -0.37016  -0.36949   0.12922
 Alpha virt. eigenvalues --    0.25685   0.38769   0.39967   0.58268   0.65268
 Alpha virt. eigenvalues --    0.71913   0.75884   0.76195   0.77477   0.77753
 Alpha virt. eigenvalues --    0.88621   0.89383   0.89827   0.92473   0.95497

 Mulliken charges and spin densities:
               1          2
     1  N   -0.249566   0.240078
     2  N   -0.250434   0.259922
     3  N   -0.250434   0.259922
     4  N   -0.249566   0.240078
 Sum of Mulliken charges =  -1.00000   1.00000

 Dipole moment (field-independent basis, Debye):
    X=             -0.0000    Y=              0.0000    Z=             -0.0000  Tot=              0.0000
 Quadrupole moment (field-independent basis, Debye-Ang):
   XX=            -22.5072   YY=            -24.3421   ZZ=            -57.0295
   XY=              0.0000   XZ=              0.0000   YZ=             -0.0000

 635\PMP2-0=-218.5921253\MP4SDQ=-218.588832\CCSD=-218.5854069\CCSD(T)=-
 Normal termination of Gaussian 16 at Tue Feb 13 17:19:38 2024.
