 Gaussian 16, Revision A.03,
 Gaussian 16:  ES64L-G16RevA.03 25-Dec-2016

 -----------------------------------------------
 #p ROCCSD(T,MaxCyc=200)/cc-pVTZ SCF(MaxCyc=200)
 -----------------------------------------------

 ---------
 N2_N2_165
 ---------
 Symbolic Z-matrix:
 Charge = -1 Multiplicity = 2

                         Standard orientation:
 ---------------------------------------------------------------------
 Center     Atomic      Atomic             Coordinates (Angstroms)
 Number     Number       Type             X           Y           Z
 ---------------------------------------------------------------------
      1          7           0        0.000000    0.000000    2.690000
      2          7           0        0.000000    0.000000    1.600000
      3          7           0        0.000000    0.000000   -1.600000
      4          7           0        0.000000    0.000000   -2.690000
 ---------------------------------------------------------------------

 SCF Done:  E(ROHF) =  -217.825100960     A.U. after   11 cycles
 E2 =    -0.7687554707D+00 EUMP2 =    -0.21859385643057D+03
 CCSD(T)
 CCSD(T)= -0.21862598447D+03

 Unable to determine electronic state:  an orbital has unidentified symmetry.
 Alpha  occ. eigenvalues --  -15.40681 -15.40681 -15.39922 -15.39922  -1.22074
 Alpha  occ. eigenvalues --   -1.22035  -0.54757  -0.53509  -0.40954  -0.40363
 Alpha  occ. eigenvalues --   -0.39406  -0.37593  -0.36593  -0.36450   0.12613
 Alpha virt. eigenvalues --    0.27179   0.38850   0.40856   0.62814   0.64568
 Alpha virt. eigenvalues --    0.72634   0.75708   0.76043   0.78323   0.78650
 Alpha virt. eigenvalues --    0.89109   0.89502   0.89746   0.92154   0.97995

 Mulliken charges and spin densities:
               1          2
     1  N   -0.248618   0.236687
     2  N   -0.251382   0.263313
     3  N   -0.251382   0.263313
     4  N   -0.248618   0.236687
 Sum of Mulliken charges =  -1.00000   1.00000

 Dipole moment (field-independent basis, Debye):
    X=             -0.0000    Y=             -0.0000    Z=             -0.0000  Tot=              0.0000
 Quadrupole moment (field-independent basis, Debye-Ang):
   XX=            -22.5213   YY=            -24.3954   ZZ=            -53.2592
   XY=              0.0000   XZ=              0.0000   YZ=             -0.0000

 1\PMP2-0=-218.5938564\MP4SDQ=-218.5911781\CCSD=-218.5876829\CCSD(T)=-2
 Normal termination of Gaussian 16 at Tue Feb 13 16:40:29 2024.
