 Gaussian 16, Revision A.03,
 Gaussian 16:  ES64L-G16RevA.03 25-Dec-2016

 -----------------------------------------------
 #p ROCCSD(T,MaxCyc=200)/cc-pVTZ SCF(MaxCyc=200)
 -----------------------------------------------

 ---------
 N2_N2_105
 ---------
 Symbolic Z-matrix:
 Charge = -1 Multiplicity = 2

                         Standard orientation:
 ---------------------------------------------------------------------
 Center     Atomic      Atomic             Coordinates (Angstroms)
 Number     Number       Type             X           Y           Z
 ---------------------------------------------------------------------
      1          7           0        0.000000    0.000000    2.290000
      2          7           0        0.000000    0.000000    1.200000
      3          7           0        0.000000    0.000000   -1.200000
      4          7           0        0.000000    0.000000   -2.290000
 ---------------------------------------------------------------------

 SCF Done:  E(ROHF) =  -217.820617126     A.U. after   12 cycles
 E2 =    -0.7687481131D+00 EUMP2 =    -0.21858936523937D+03
 CCSD(T)
 CCSD(T)= -0.21862253745D+03

 Unable to determine electronic state:  an orbital has unidentified symmetry.
 Alpha  occ. eigenvalues --  -15.38976 -15.38975 -15.38053 -15.38052  -1.20630
 Alpha  occ. eigenvalues --   -1.20386  -0.55796  -0.50384  -0.39941  -0.39820
 Alpha  occ. eigenvalues --   -0.38259  -0.35398  -0.34599  -0.32565   0.11101
 Alpha virt. eigenvalues --    0.32281   0.38833   0.44082   0.63465   0.66072
 Alpha virt. eigenvalues --    0.76010   0.76319   0.80734   0.81363   0.89027
 Alpha virt. eigenvalues --    0.90413   0.91379   0.91383   0.93956   1.04965

 Mulliken charges and spin densities:
               1          2
     1  N   -0.258510   0.227364
     2  N   -0.241490   0.272636
     3  N   -0.241490   0.272636
     4  N   -0.258510   0.227364
 Sum of Mulliken charges =  -1.00000   1.00000

 Dipole moment (field-independent basis, Debye):
    X=             -0.0000    Y=             -0.0000    Z=              0.0000  Tot=              0.0000
 Quadrupole moment (field-independent basis, Debye-Ang):
   XX=            -24.5172   YY=            -22.5657   ZZ=            -46.2833
   XY=              0.0000   XZ=              0.0000   YZ=             -0.0000

 171\PMP2-0=-218.5893652\MP4SDQ=-218.5878911\CCSD=-218.584149\CCSD(T)=-
 Normal termination of Gaussian 16 at Tue Feb 13 15:07:23 2024.
