 Gaussian 16, Revision A.03,
 Gaussian 16:  ES64L-G16RevA.03 25-Dec-2016

 -----------------------------------------------
 #p ROCCSD(T,MaxCyc=200)/cc-pVTZ SCF(MaxCyc=200)
 -----------------------------------------------

 ---------
 N2_N2_193
 ---------
 Symbolic Z-matrix:
 Charge = -1 Multiplicity = 2

                         Standard orientation:
 ---------------------------------------------------------------------
 Center     Atomic      Atomic             Coordinates (Angstroms)
 Number     Number       Type             X           Y           Z
 ---------------------------------------------------------------------
      1          7           0        0.578060   -2.630560    0.000000
      2          7           0       -0.192687   -1.859814    0.000000
      3          7           0       -0.192687    1.700186   -0.000000
      4          7           0       -0.192687    2.790187   -0.000000
 ---------------------------------------------------------------------

 SCF Done:  E(ROHF) =  -217.823246161     A.U. after   16 cycles
 E2 =    -0.7693811559D+00 EUMP2 =    -0.21859262731734D+03
 CCSD(T)
 CCSD(T)= -0.21862420542D+03

 The electronic state is 2-A".
 Alpha  occ. eigenvalues --  -15.41356 -15.40723 -15.40705 -15.40078  -1.22754
 Alpha  occ. eigenvalues --   -1.22129  -0.54994  -0.54230  -0.41416  -0.40840
 Alpha  occ. eigenvalues --   -0.39520  -0.38613  -0.37216  -0.36532   0.12891
 Alpha virt. eigenvalues --    0.25728   0.39009   0.39738   0.58945   0.64539
 Alpha virt. eigenvalues --    0.72201   0.75625   0.75864   0.77617   0.78181
 Alpha virt. eigenvalues --    0.85040   0.89182   0.90050   0.91311   0.95208

 Mulliken charges and spin densities:
               1          2
     1  N   -0.265867   0.246423
     2  N   -0.242414   0.261909
     3  N   -0.242202   0.255463
     4  N   -0.249518   0.236206
 Sum of Mulliken charges =  -1.00000   1.00000

 Dipole moment (field-independent basis, Debye):
    X=             -0.1036    Y=              0.1303    Z=             -0.0000  Tot=              0.1665
 Quadrupole moment (field-independent basis, Debye-Ang):
   XX=            -24.3037   YY=            -53.3477   ZZ=            -24.3298
   XY=              3.9229   XZ=              0.0000   YZ=              0.0000

 5\CCSD=-218.586001\CCSD(T)=-218.6242054\RMSD=4.813e-09\PG=CS [SG(N4)]\
 Normal termination of Gaussian 16 at Tue Feb 13 17:21:11 2024.
