 Gaussian 16, Revision A.03,
 Gaussian 16:  ES64L-G16RevA.03 25-Dec-2016

 -----------------------------------------------
 #p ROCCSD(T,MaxCyc=200)/cc-pVTZ SCF(MaxCyc=200)
 -----------------------------------------------

 ---------
 N2_N2_100
 ---------
 Symbolic Z-matrix:
 Charge = -1 Multiplicity = 2

                         Standard orientation:
 ---------------------------------------------------------------------
 Center     Atomic      Atomic             Coordinates (Angstroms)
 Number     Number       Type             X           Y           Z
 ---------------------------------------------------------------------
      1          7           0        0.578060   -2.010560    0.000000
      2          7           0       -0.192687   -1.239813   -0.000000
      3          7           0       -0.192687    1.080187   -0.000000
      4          7           0       -0.192687    2.170186   -0.000000
 ---------------------------------------------------------------------

 SCF Done:  E(ROHF) =  -217.819733019     A.U. after   19 cycles
 E2 =    -0.7700182832D+00 EUMP2 =    -0.21858975130240D+03
 CCSD(T)
 CCSD(T)= -0.21862401079D+03

 The electronic state is 2-A".
 Alpha  occ. eigenvalues --  -15.41310 -15.40296 -15.36495 -15.35163  -1.22472
 Alpha  occ. eigenvalues --   -1.18113  -0.56408  -0.49847  -0.40479  -0.40316
 Alpha  occ. eigenvalues --   -0.37341  -0.36966  -0.33782  -0.30547   0.10851
 Alpha virt. eigenvalues --    0.32593   0.39481   0.44536   0.63644   0.66415
 Alpha virt. eigenvalues --    0.74676   0.75707   0.81528   0.82591   0.85794
 Alpha virt. eigenvalues --    0.87824   0.89371   0.92639   1.02714   1.02913

 Mulliken charges and spin densities:
               1          2
     1  N   -0.311755   0.281744
     2  N   -0.274676   0.305527
     3  N   -0.184138   0.227212
     4  N   -0.229431   0.185517
 Sum of Mulliken charges =  -1.00000   1.00000

 Dipole moment (field-independent basis, Debye):
    X=             -0.3197    Y=              1.2600    Z=             -0.0000  Tot=              1.2999
 Quadrupole moment (field-independent basis, Debye-Ang):
   XX=            -24.5589   YY=            -42.3609   ZZ=            -24.4534
   XY=              3.5640   XZ=             -0.0000   YZ=              0.0000

 254\CCSD=-218.5852321\CCSD(T)=-218.6240108\RMSD=3.277e-09\PG=CS [SG(N4
 Normal termination of Gaussian 16 at Tue Feb 13 14:59:27 2024.
