 Gaussian 16, Revision A.03,
 Gaussian 16:  ES64L-G16RevA.03 25-Dec-2016

 -----------------------------------------------
 #p ROCCSD(T,MaxCyc=200)/cc-pVTZ SCF(MaxCyc=200)
 -----------------------------------------------

 ---------
 N2_N2_131
 ---------
 Symbolic Z-matrix:
 Charge = -1 Multiplicity = 2

                         Standard orientation:
 ---------------------------------------------------------------------
 Center     Atomic      Atomic             Coordinates (Angstroms)
 Number     Number       Type             X           Y           Z
 ---------------------------------------------------------------------
      1          7           0       -0.817500   -1.632500    0.000000
      2          7           0        0.272500   -1.632500    0.000000
      3          7           0        0.272500    1.087500    0.000000
      4          7           0        0.272500    2.177500    0.000000
 ---------------------------------------------------------------------

 SCF Done:  E(ROHF) =  -217.832975076     A.U. after   18 cycles
 E2 =    -0.7689807510D+00 EUMP2 =    -0.21860195582694D+03
 CCSD(T)
 CCSD(T)= -0.21863568110D+03

 The electronic state is 2-A'.
 Alpha  occ. eigenvalues --  -15.41248 -15.40024 -15.37510 -15.37102  -1.22214
 Alpha  occ. eigenvalues --   -1.19098  -0.54349  -0.51771  -0.40731  -0.40118
 Alpha  occ. eigenvalues --   -0.37042  -0.36670  -0.34595  -0.33696   0.11110
 Alpha virt. eigenvalues --    0.31884   0.39803   0.42267   0.62456   0.64902
 Alpha virt. eigenvalues --    0.75587   0.76809   0.78029   0.81512   0.81646
 Alpha virt. eigenvalues --    0.82129   0.89164   0.92295   0.95999   0.98293

 Mulliken charges and spin densities:
               1          2
     1  N   -0.310030   0.270253
     2  N   -0.247329   0.288106
     3  N   -0.200419   0.243344
     4  N   -0.242222   0.198297
 Sum of Mulliken charges =  -1.00000   1.00000

 Dipole moment (field-independent basis, Debye):
    X=              0.2583    Y=              0.6990    Z=              0.0000  Tot=              0.7452
 Quadrupole moment (field-independent basis, Debye-Ang):
   XX=            -27.2283   YY=            -41.0561   ZZ=            -22.5317
   XY=             -2.3490   XZ=              0.0000   YZ=              0.0000

 968\CCSD(T)=-218.6356811\RMSD=3.414e-09\PG=CS [SG(N4)]\\@
 Normal termination of Gaussian 16 at Tue Feb 13 15:47:59 2024.
