 Gaussian 16, Revision A.03,
 Gaussian 16:  ES64L-G16RevA.03 25-Dec-2016

 -----------------------------------------------
 #p ROCCSD(T,MaxCyc=200)/cc-pVTZ SCF(MaxCyc=200)
 -----------------------------------------------

 ---------
 N2_N2_188
 ---------
 Symbolic Z-matrix:
 Charge = -1 Multiplicity = 2

                         Standard orientation:
 ---------------------------------------------------------------------
 Center     Atomic      Atomic             Coordinates (Angstroms)
 Number     Number       Type             X           Y           Z
 ---------------------------------------------------------------------
      1          7           0       -0.817500   -2.012500    0.000000
      2          7           0        0.272500   -2.012500    0.000000
      3          7           0        0.272500    1.467500    0.000000
      4          7           0        0.272500    2.557500    0.000000
 ---------------------------------------------------------------------

 SCF Done:  E(ROHF) =  -217.828078417     A.U. after   17 cycles
 E2 =    -0.7687833856D+00 EUMP2 =    -0.21859686180303D+03
 CCSD(T)
 CCSD(T)= -0.21862913504D+03

 The electronic state is 2-A'.
 Alpha  occ. eigenvalues --  -15.41375 -15.40550 -15.39933 -15.39587  -1.22603
 Alpha  occ. eigenvalues --   -1.21392  -0.54614  -0.53813  -0.41005  -0.40439
 Alpha  occ. eigenvalues --   -0.39003  -0.37971  -0.37056  -0.35942   0.12406
 Alpha virt. eigenvalues --    0.27489   0.39350   0.40215   0.60319   0.62561
 Alpha virt. eigenvalues --    0.71550   0.76062   0.76063   0.77430   0.78841
 Alpha virt. eigenvalues --    0.83740   0.88741   0.89533   0.94633   0.96190

 Mulliken charges and spin densities:
               1          2
     1  N   -0.274070   0.256701
     2  N   -0.243572   0.261578
     3  N   -0.233878   0.254992
     4  N   -0.248480   0.226730
 Sum of Mulliken charges =  -1.00000   1.00000

 Dipole moment (field-independent basis, Debye):
    X=              0.0871    Y=              0.1991    Z=              0.0000  Tot=              0.2174
 Quadrupole moment (field-independent basis, Debye-Ang):
   XX=            -27.0513   YY=            -47.4357   ZZ=            -22.5088
   XY=             -2.8482   XZ=              0.0000   YZ=              0.0000

 35\CCSD(T)=-218.629135\RMSD=4.208e-09\PG=CS [SG(N4)]\\@
 Normal termination of Gaussian 16 at Tue Feb 13 17:14:11 2024.
