 Gaussian 16, Revision A.03,
 Gaussian 16:  ES64L-G16RevA.03 25-Dec-2016

 -----------------------------------------------
 #p ROCCSD(T,MaxCyc=200)/cc-pVTZ SCF(MaxCyc=200)
 -----------------------------------------------

 --------
 N2_N2_26
 --------
 Symbolic Z-matrix:
 Charge = -1 Multiplicity = 2

                         Standard orientation:
 ---------------------------------------------------------------------
 Center     Atomic      Atomic             Coordinates (Angstroms)
 Number     Number       Type             X           Y           Z
 ---------------------------------------------------------------------
      1          7           0       -0.817500   -0.932500    0.000000
      2          7           0        0.272500   -0.932500    0.000000
      3          7           0        0.272500    0.387500    0.000000
      4          7           0        0.272500    1.477500    0.000000
 ---------------------------------------------------------------------

 SCF Done:  E(ROHF) =  -217.542900396     A.U. after   22 cycles
 E2 =    -0.7706547983D+00 EUMP2 =    -0.21831355519387D+03
 CCSD(T)
 CCSD(T)= -0.21836218679D+03

 The electronic state is 2-A".
 Alpha  occ. eigenvalues --  -15.42814 -15.40461 -15.33660 -15.27120  -1.31591
 Alpha  occ. eigenvalues --   -1.16118  -0.75928  -0.52169  -0.50459  -0.41287
 Alpha  occ. eigenvalues --   -0.34798  -0.32280  -0.31058  -0.05057   0.01107
 Alpha virt. eigenvalues --    0.43115   0.44708   0.56224   0.62779   0.65019
 Alpha virt. eigenvalues --    0.72356   0.76559   0.78506   0.84703   0.85984
 Alpha virt. eigenvalues --    0.92412   0.95834   0.97081   0.98889   1.02948

 Mulliken charges and spin densities:
               1          2
     1  N   -0.609291   0.096672
     2  N    0.015317   0.014379
     3  N   -0.006728   0.330109
     4  N   -0.399298   0.558839
 Sum of Mulliken charges =  -1.00000   1.00000

 Dipole moment (field-independent basis, Debye):
    X=              1.5742    Y=             -0.3679    Z=              0.0000  Tot=              1.6166
 Quadrupole moment (field-independent basis, Debye-Ang):
   XX=            -27.3338   YY=            -36.1479   ZZ=            -22.8778
   XY=             -3.4062   XZ=              0.0000   YZ=              0.0000

 4\CCSD(T)=-218.3621868\RMSD=3.177e-09\PG=CS [SG(N4)]\\@
 Normal termination of Gaussian 16 at Tue Feb 13 13:02:18 2024.
