 Gaussian 16, Revision A.03,
 Gaussian 16:  ES64L-G16RevA.03 25-Dec-2016

 -----------------------------------------------
 #p ROCCSD(T,MaxCyc=200)/cc-pVTZ SCF(MaxCyc=200)
 -----------------------------------------------

 ---------
 N2_N2_167
 ---------
 Symbolic Z-matrix:
 Charge = -1 Multiplicity = 2

                         Standard orientation:
 ---------------------------------------------------------------------
 Center     Atomic      Atomic             Coordinates (Angstroms)
 Number     Number       Type             X           Y           Z
 ---------------------------------------------------------------------
      1          7           0       -0.817500   -1.872500    0.000000
      2          7           0        0.272500   -1.872500    0.000000
      3          7           0        0.272500    1.327500    0.000000
      4          7           0        0.272500    2.417500    0.000000
 ---------------------------------------------------------------------

 SCF Done:  E(ROHF) =  -217.830773672     A.U. after   16 cycles
 E2 =    -0.7686182268D+00 EUMP2 =    -0.21859939189849D+03
 CCSD(T)
 CCSD(T)= -0.21863218939D+03

 The electronic state is 2-A'.
 Alpha  occ. eigenvalues --  -15.41293 -15.40317 -15.39294 -15.38936  -1.22413
 Alpha  occ. eigenvalues --   -1.20748  -0.54394  -0.53217  -0.40684  -0.40281
 Alpha  occ. eigenvalues --   -0.38509  -0.37104  -0.36861  -0.35315   0.12035
 Alpha virt. eigenvalues --    0.28891   0.39560   0.40810   0.61310   0.63882
 Alpha virt. eigenvalues --    0.72449   0.75817   0.76211   0.78072   0.79756
 Alpha virt. eigenvalues --    0.83351   0.88738   0.89960   0.94994   0.96963

 Mulliken charges and spin densities:
               1          2
     1  N   -0.283905   0.259878
     2  N   -0.242320   0.266878
     3  N   -0.229014   0.254024
     4  N   -0.244761   0.219220
 Sum of Mulliken charges =  -1.00000   1.00000

 Dipole moment (field-independent basis, Debye):
    X=              0.1296    Y=              0.3123    Z=              0.0000  Tot=              0.3381
 Quadrupole moment (field-independent basis, Debye-Ang):
   XX=            -27.1129   YY=            -44.8616   ZZ=            -22.5172
   XY=             -2.6629   XZ=              0.0000   YZ=              0.0000

 56\CCSD(T)=-218.6321894\RMSD=8.401e-09\PG=CS [SG(N4)]\\@
 Normal termination of Gaussian 16 at Tue Feb 13 16:43:31 2024.
