 Gaussian 16, Revision A.03,
 Gaussian 16:  ES64L-G16RevA.03 25-Dec-2016

 -----------------------------------------------
 #p ROCCSD(T,MaxCyc=200)/cc-pVTZ SCF(MaxCyc=200)
 -----------------------------------------------

 ---------
 N2_N2_175
 ---------
 Symbolic Z-matrix:
 Charge = -1 Multiplicity = 2

                         Standard orientation:
 ---------------------------------------------------------------------
 Center     Atomic      Atomic             Coordinates (Angstroms)
 Number     Number       Type             X           Y           Z
 ---------------------------------------------------------------------
      1          7           0        0.578060   -2.510560    0.000000
      2          7           0       -0.192687   -1.739814    0.000000
      3          7           0       -0.192687    1.580187    0.000000
      4          7           0       -0.192687    2.670187    0.000000
 ---------------------------------------------------------------------

 SCF Done:  E(ROHF) =  -217.824682988     A.U. after   17 cycles
 E2 =    -0.7691535296D+00 EUMP2 =    -0.21859383651716D+03
 CCSD(T)
 CCSD(T)= -0.21862581097D+03

 The electronic state is 2-A".
 Alpha  occ. eigenvalues --  -15.41196 -15.40483 -15.40367 -15.39640  -1.22541
 Alpha  occ. eigenvalues --   -1.21743  -0.54842  -0.53745  -0.41161  -0.40433
 Alpha  occ. eigenvalues --   -0.39417  -0.38094  -0.36998  -0.36095   0.12711
 Alpha virt. eigenvalues --    0.26645   0.39199   0.40272   0.60786   0.64720
 Alpha virt. eigenvalues --    0.72693   0.75326   0.75729   0.78192   0.78958
 Alpha virt. eigenvalues --    0.85656   0.89359   0.89882   0.92242   0.96432

 Mulliken charges and spin densities:
               1          2
     1  N   -0.266504   0.246194
     2  N   -0.244747   0.264958
     3  N   -0.242569   0.255986
     4  N   -0.246179   0.232862
 Sum of Mulliken charges =  -1.00000   1.00000

 Dipole moment (field-independent basis, Debye):
    X=             -0.1167    Y=              0.1765    Z=              0.0000  Tot=              0.2116
 Quadrupole moment (field-independent basis, Debye-Ang):
   XX=            -24.3234   YY=            -50.8724   ZZ=            -24.3589
   XY=              3.8270   XZ=              0.0000   YZ=              0.0000

 23\CCSD=-218.5875426\CCSD(T)=-218.625811\RMSD=4.596e-09\PG=CS [SG(N4)]
 Normal termination of Gaussian 16 at Tue Feb 13 16:54:37 2024.
