 Gaussian 16, Revision A.03,
 Gaussian 16:  ES64L-G16RevA.03 25-Dec-2016

 -----------------------------------------------
 #p ROCCSD(T,MaxCyc=200)/cc-pVTZ SCF(MaxCyc=200)
 -----------------------------------------------

 -------
 N2_N2_5
 -------
 Symbolic Z-matrix:
 Charge = -1 Multiplicity = 2

                         Standard orientation:
 ---------------------------------------------------------------------
 Center     Atomic      Atomic             Coordinates (Angstroms)
 Number     Number       Type             X           Y           Z
 ---------------------------------------------------------------------
      1          7           0       -0.817500   -0.792500    0.000000
      2          7           0        0.272500   -0.792500    0.000000
      3          7           0        0.272500    0.247500    0.000000
      4          7           0        0.272500    1.337500    0.000000
 ---------------------------------------------------------------------

 SCF Done:  E(ROHF) =  -217.386442983     A.U. after   18 cycles
 E2 =    -0.7876663568D+00 EUMP2 =    -0.21817410933943D+03
 CCSD(T)
 CCSD(T)= -0.21819935978D+03

 The electronic state is 2-A".
 Alpha  occ. eigenvalues --  -15.51530 -15.36901 -15.32006 -15.26833  -1.50169
 Alpha  occ. eigenvalues --   -1.17407  -0.89427  -0.61496  -0.57933  -0.40126
 Alpha  occ. eigenvalues --   -0.36958  -0.28904  -0.28089  -0.03028  -0.01806
 Alpha virt. eigenvalues --    0.46282   0.47639   0.60220   0.63415   0.67825
 Alpha virt. eigenvalues --    0.74856   0.77006   0.78340   0.85158   0.86185
 Alpha virt. eigenvalues --    0.90698   0.91159   1.00216   1.02101   1.04136

 Mulliken charges and spin densities:
               1          2
     1  N   -0.756427   0.703793
     2  N    0.046013   0.067876
     3  N    0.188636   0.080131
     4  N   -0.478222   0.148200
 Sum of Mulliken charges =  -1.00000   1.00000

 Dipole moment (field-independent basis, Debye):
    X=              1.8600    Y=             -0.1887    Z=              0.0000  Tot=              1.8695
 Quadrupole moment (field-independent basis, Debye-Ang):
   XX=            -28.2727   YY=            -34.4858   ZZ=            -22.4292
   XY=             -3.0376   XZ=              0.0000   YZ=              0.0000

 CCSD(T)=-218.1993598\RMSD=2.181e-09\PG=CS [SG(N4)]\\@
 Normal termination of Gaussian 16 at Tue Feb 13 12:27:45 2024.
