 Gaussian 16, Revision A.03,
 Gaussian 16:  ES64L-G16RevA.03 25-Dec-2016

 -----------------------------------------------
 #p ROCCSD(T,MaxCyc=200)/cc-pVTZ SCF(MaxCyc=200)
 -----------------------------------------------

 ---------
 N2_N2_114
 ---------
 Symbolic Z-matrix:
 Charge = -1 Multiplicity = 2

                         Standard orientation:
 ---------------------------------------------------------------------
 Center     Atomic      Atomic             Coordinates (Angstroms)
 Number     Number       Type             X           Y           Z
 ---------------------------------------------------------------------
      1          7           0        0.000000    0.000000    2.350000
      2          7           0        0.000000    0.000000    1.260000
      3          7           0        0.000000    0.000000   -1.260000
      4          7           0        0.000000    0.000000   -2.350000
 ---------------------------------------------------------------------

 SCF Done:  E(ROHF) =  -217.824315355     A.U. after   12 cycles
 E2 =    -0.7683904629D+00 EUMP2 =    -0.21859270581751D+03
 CCSD(T)
 CCSD(T)= -0.21862577285D+03

 Unable to determine electronic state:  an orbital has unidentified symmetry.
 Alpha  occ. eigenvalues --  -15.39378 -15.39377 -15.38428 -15.38428  -1.20904
 Alpha  occ. eigenvalues --   -1.20722  -0.55335  -0.51017  -0.39992  -0.39776
 Alpha  occ. eigenvalues --   -0.38673  -0.35598  -0.34985  -0.33788   0.11434
 Alpha virt. eigenvalues --    0.31310   0.38861   0.43439   0.63585   0.66202
 Alpha virt. eigenvalues --    0.75804   0.76136   0.80327   0.80889   0.85790
 Alpha virt. eigenvalues --    0.90174   0.90600   0.90783   0.93383   1.03866

 Mulliken charges and spin densities:
               1          2
     1  N   -0.258884   0.228397
     2  N   -0.241116   0.271603
     3  N   -0.241116   0.271603
     4  N   -0.258884   0.228397
 Sum of Mulliken charges =  -1.00000   1.00000

 Dipole moment (field-independent basis, Debye):
    X=             -0.0000    Y=              0.0000    Z=              0.0000  Tot=              0.0000
 Quadrupole moment (field-independent basis, Debye-Ang):
   XX=            -24.5057   YY=            -22.5594   ZZ=            -47.1766
   XY=              0.0000   XZ=              0.0000   YZ=             -0.0000

 3154\PMP2-0=-218.5927058\MP4SDQ=-218.591124\CCSD=-218.5874328\CCSD(T)=
 Normal termination of Gaussian 16 at Tue Feb 13 15:22:13 2024.
