 Gaussian 16, Revision A.03,
 Gaussian 16:  ES64L-G16RevA.03 25-Dec-2016

 -----------------------------------------------
 #p ROCCSD(T,MaxCyc=200)/cc-pVTZ SCF(MaxCyc=200)
 -----------------------------------------------

 --------
 N2_N2_28
 --------
 Symbolic Z-matrix:
 Charge = -1 Multiplicity = 2

                         Standard orientation:
 ---------------------------------------------------------------------
 Center     Atomic      Atomic             Coordinates (Angstroms)
 Number     Number       Type             X           Y           Z
 ---------------------------------------------------------------------
      1          7           0        0.578060   -1.530560    0.000000
      2          7           0       -0.192687   -0.759813    0.000000
      3          7           0       -0.192687    0.600186   -0.000000
      4          7           0       -0.192687    1.690187   -0.000000
 ---------------------------------------------------------------------

 SCF Done:  E(ROHF) =  -217.615356560     A.U. after   18 cycles
 E2 =    -0.7716788602D+00 EUMP2 =    -0.21838703542052D+03
 CCSD(T)
 CCSD(T)= -0.21843020330D+03

 The electronic state is 2-A".
 Alpha  occ. eigenvalues --  -15.41626 -15.41039 -15.38016 -15.27786  -1.25283
 Alpha  occ. eigenvalues --   -1.16937  -0.82612  -0.49366  -0.46274  -0.43813
 Alpha  occ. eigenvalues --   -0.36864  -0.32944  -0.30907  -0.04593  -0.02392
 Alpha virt. eigenvalues --    0.40666   0.46594   0.55727   0.63120   0.70199
 Alpha virt. eigenvalues --    0.76019   0.76505   0.80888   0.84926   0.85256
 Alpha virt. eigenvalues --    0.91103   0.93960   0.96921   1.02044   1.02305

 Mulliken charges and spin densities:
               1          2
     1  N   -0.595674   0.090313
     2  N   -0.031715   0.020429
     3  N   -0.091455   0.338498
     4  N   -0.281155   0.550761
 Sum of Mulliken charges =  -1.00000   1.00000

 Dipole moment (field-independent basis, Debye):
    X=             -0.8020    Y=              1.6144    Z=             -0.0000  Tot=              1.8026
 Quadrupole moment (field-independent basis, Debye-Ang):
   XX=            -25.8974   YY=            -40.5442   ZZ=            -23.0784
   XY=              3.4789   XZ=             -0.0000   YZ=              0.0000

 714\CCSD=-218.3884489\CCSD(T)=-218.4302033\RMSD=4.381e-09\PG=CS [SG(N4
 Normal termination of Gaussian 16 at Tue Feb 13 13:06:09 2024.
