 Gaussian 16, Revision A.03,
 Gaussian 16:  ES64L-G16RevA.03 25-Dec-2016

 -----------------------------------------------
 #p ROCCSD(T,MaxCyc=200)/cc-pVTZ SCF(MaxCyc=200)
 -----------------------------------------------

 ---------
 N2_N2_158
 ---------
 Symbolic Z-matrix:
 Charge = -1 Multiplicity = 2

                         Standard orientation:
 ---------------------------------------------------------------------
 Center     Atomic      Atomic             Coordinates (Angstroms)
 Number     Number       Type             X           Y           Z
 ---------------------------------------------------------------------
      1          7           0       -0.817500   -1.812500    0.000000
      2          7           0        0.272500   -1.812500    0.000000
      3          7           0        0.272500    1.267500    0.000000
      4          7           0        0.272500    2.357500    0.000000
 ---------------------------------------------------------------------

 SCF Done:  E(ROHF) =  -217.831832495     A.U. after   17 cycles
 E2 =    -0.7686029589D+00 EUMP2 =    -0.21860043545407D+03
 CCSD(T)
 CCSD(T)= -0.21863345968D+03

 The electronic state is 2-A'.
 Alpha  occ. eigenvalues --  -15.41265 -15.40221 -15.38951 -15.38585  -1.22340
 Alpha  occ. eigenvalues --   -1.20414  -0.54324  -0.52915  -0.40547  -0.40288
 Alpha  occ. eigenvalues --   -0.38226  -0.36787  -0.36625  -0.34989   0.11842
 Alpha virt. eigenvalues --    0.29565   0.39642   0.41112   0.61639   0.64432
 Alpha virt. eigenvalues --    0.73430   0.75718   0.76357   0.78422   0.80190
 Alpha virt. eigenvalues --    0.83083   0.88841   0.90284   0.95196   0.97304

 Mulliken charges and spin densities:
               1          2
     1  N   -0.288979   0.261702
     2  N   -0.242425   0.270240
     3  N   -0.224740   0.252872
     4  N   -0.243856   0.215186
 Sum of Mulliken charges =  -1.00000   1.00000

 Dipole moment (field-independent basis, Debye):
    X=              0.1533    Y=              0.3791    Z=              0.0000  Tot=              0.4090
 Quadrupole moment (field-independent basis, Debye-Ang):
   XX=            -27.1406   YY=            -43.8330   ZZ=            -22.5209
   XY=             -2.5823   XZ=              0.0000   YZ=              0.0000

 137\CCSD(T)=-218.6334597\RMSD=2.855e-09\PG=CS [SG(N4)]\\@
 Normal termination of Gaussian 16 at Tue Feb 13 16:30:40 2024.
