 Gaussian 16, Revision A.03,
 Gaussian 16:  ES64L-G16RevA.03 25-Dec-2016

 -----------------------------------------------
 #p ROCCSD(T,MaxCyc=200)/cc-pVTZ SCF(MaxCyc=200)
 -----------------------------------------------

 ---------
 N2_N2_162
 ---------
 Symbolic Z-matrix:
 Charge = -1 Multiplicity = 2

                         Standard orientation:
 ---------------------------------------------------------------------
 Center     Atomic      Atomic             Coordinates (Angstroms)
 Number     Number       Type             X           Y           Z
 ---------------------------------------------------------------------
      1          7           0        0.000000    0.000000    2.670000
      2          7           0        0.000000    0.000000    1.580000
      3          7           0        0.000000    0.000000   -1.580000
      4          7           0        0.000000    0.000000   -2.670000
 ---------------------------------------------------------------------

 SCF Done:  E(ROHF) =  -217.825359543     A.U. after   11 cycles
 E2 =    -0.7686959013D+00 EUMP2 =    -0.21859405544455D+03
 CCSD(T)
 CCSD(T)= -0.21862624595D+03

 Unable to determine electronic state:  an orbital has unidentified symmetry.
 Alpha  occ. eigenvalues --  -15.40631 -15.40630 -15.39856 -15.39855  -1.22019
 Alpha  occ. eigenvalues --   -1.21977  -0.54744  -0.53404  -0.40902  -0.40287
 Alpha  occ. eigenvalues --   -0.39403  -0.37457  -0.36542  -0.36387   0.12569
 Alpha virt. eigenvalues --    0.27370   0.38856   0.40970   0.63325   0.64491
 Alpha virt. eigenvalues --    0.72860   0.75686   0.76024   0.78427   0.78762
 Alpha virt. eigenvalues --    0.89161   0.89495   0.89789   0.92146   0.98307

 Mulliken charges and spin densities:
               1          2
     1  N   -0.248819   0.236236
     2  N   -0.251181   0.263764
     3  N   -0.251181   0.263764
     4  N   -0.248819   0.236236
 Sum of Mulliken charges =  -1.00000   1.00000

 Dipole moment (field-independent basis, Debye):
    X=             -0.0000    Y=              0.0000    Z=             -0.0000  Tot=              0.0000
 Quadrupole moment (field-independent basis, Debye-Ang):
   XX=            -24.4021   YY=            -22.5231   ZZ=            -52.8609
   XY=              0.0000   XZ=              0.0000   YZ=             -0.0000

 Normal termination of Gaussian 16 at Tue Feb 13 16:36:09 2024.
