 Gaussian 16, Revision A.03,
 Gaussian 16:  ES64L-G16RevA.03 25-Dec-2016

 -----------------------------------------------
 #p ROCCSD(T,MaxCyc=200)/cc-pVTZ SCF(MaxCyc=200)
 -----------------------------------------------

 --------
 N2_N2_57
 --------
 Symbolic Z-matrix:
 Charge = -1 Multiplicity = 2

                         Standard orientation:
 ---------------------------------------------------------------------
 Center     Atomic      Atomic             Coordinates (Angstroms)
 Number     Number       Type             X           Y           Z
 ---------------------------------------------------------------------
      1          7           0        0.000000    0.000000    1.970000
      2          7           0        0.000000    0.000000    0.880000
      3          7           0        0.000000    0.000000   -0.880000
      4          7           0        0.000000    0.000000   -1.970000
 ---------------------------------------------------------------------

 SCF Done:  E(ROHF) =  -217.700410202     A.U. after   12 cycles
 E2 =    -0.7807353989D+00 EUMP2 =    -0.21848114560123D+03
 CCSD(T)
 CCSD(T)= -0.21851362999D+03

 Unable to determine electronic state:  an orbital has unidentified symmetry.
 Alpha  occ. eigenvalues --  -15.35319 -15.35319 -15.34864 -15.34860  -1.18935
 Alpha  occ. eigenvalues --   -1.17642  -0.64478  -0.46074  -0.40602  -0.39574
 Alpha  occ. eigenvalues --   -0.35115  -0.34736  -0.31212  -0.17879   0.07995
 Alpha virt. eigenvalues --    0.38122   0.39438   0.49208   0.63348   0.65168
 Alpha virt. eigenvalues --    0.77922   0.78069   0.83162   0.84429   0.87235
 Alpha virt. eigenvalues --    0.91358   0.96068   0.98436   1.05228   1.10605

 Mulliken charges and spin densities:
               1          2
     1  N   -0.198446   0.236636
     2  N   -0.301554   0.263364
     3  N   -0.301554   0.263364
     4  N   -0.198446   0.236636
 Sum of Mulliken charges =  -1.00000   1.00000

 Dipole moment (field-independent basis, Debye):
    X=             -0.0000    Y=             -0.0000    Z=              0.0000  Tot=              0.0000
 Quadrupole moment (field-independent basis, Debye-Ang):
   XX=            -22.5553   YY=            -24.3980   ZZ=            -42.5050
   XY=              0.0000   XZ=              0.0000   YZ=             -0.0000

 102\PMP2-0=-218.4811456\MP4SDQ=-218.4782175\CCSD=-218.4737554\CCSD(T)=
 Normal termination of Gaussian 16 at Tue Feb 13 13:55:47 2024.
