 Gaussian 16, Revision A.03,
 Gaussian 16:  ES64L-G16RevA.03 25-Dec-2016

 -----------------------------------------------
 #p ROCCSD(T,MaxCyc=200)/cc-pVTZ SCF(MaxCyc=200)
 -----------------------------------------------

 --------
 N2_N2_80
 --------
 Symbolic Z-matrix:
 Charge = -1 Multiplicity = 2

                         Standard orientation:
 ---------------------------------------------------------------------
 Center     Atomic      Atomic             Coordinates (Angstroms)
 Number     Number       Type             X           Y           Z
 ---------------------------------------------------------------------
      1          7           0       -0.817500   -1.292500    0.000000
      2          7           0        0.272500   -1.292500    0.000000
      3          7           0        0.272500    0.747500    0.000000
      4          7           0        0.272500    1.837500    0.000000
 ---------------------------------------------------------------------

 SCF Done:  E(ROHF) =  -217.792805548     A.U. after   21 cycles
 E2 =    -0.7716124020D+00 EUMP2 =    -0.21856441795028D+03
 CCSD(T)
 CCSD(T)= -0.21860060725D+03

 The electronic state is 2-A'.
 Alpha  occ. eigenvalues --  -15.42959 -15.41664 -15.30162 -15.29762  -1.23513
 Alpha  occ. eigenvalues --   -1.13664  -0.56433  -0.51616  -0.40489  -0.38891
 Alpha  occ. eigenvalues --   -0.38077  -0.35474  -0.28353  -0.24874   0.08014
 Alpha virt. eigenvalues --    0.38588   0.38803   0.46567   0.60755   0.67685
 Alpha virt. eigenvalues --    0.74521   0.75899   0.76853   0.83688   0.85738
 Alpha virt. eigenvalues --    0.93682   0.94233   0.96593   1.00163   1.02877

 Mulliken charges and spin densities:
               1          2
     1  N   -0.161126   0.074278
     2  N   -0.064022   0.115715
     3  N   -0.416253   0.404745
     4  N   -0.358598   0.405262
 Sum of Mulliken charges =  -1.00000   1.00000

 Dipole moment (field-independent basis, Debye):
    X=             -0.4012    Y=             -3.1202    Z=              0.0000  Tot=              3.1459
 Quadrupole moment (field-independent basis, Debye-Ang):
   XX=            -26.6723   YY=            -37.5482   ZZ=            -22.4766
   XY=             -2.1809   XZ=              0.0000   YZ=              0.0000

 \CCSD(T)=-218.6006073\RMSD=6.994e-09\PG=CS [SG(N4)]\\@
 Normal termination of Gaussian 16 at Tue Feb 13 14:34:30 2024.
