 Gaussian 16, Revision A.03,
 Gaussian 16:  ES64L-G16RevA.03 25-Dec-2016

 -----------------------------------------------
 #p ROCCSD(T,MaxCyc=200)/cc-pVTZ SCF(MaxCyc=200)
 -----------------------------------------------

 ---------
 N2_N2_257
 ---------
 Symbolic Z-matrix:
 Charge = -1 Multiplicity = 2

                         Standard orientation:
 ---------------------------------------------------------------------
 Center     Atomic      Atomic             Coordinates (Angstroms)
 Number     Number       Type             X           Y           Z
 ---------------------------------------------------------------------
      1          7           0       -0.817500   -2.472500    0.000000
      2          7           0        0.272500   -2.472500    0.000000
      3          7           0        0.272500    1.927500    0.000000
      4          7           0        0.272500    3.017500    0.000000
 ---------------------------------------------------------------------

 SCF Done:  E(ROHF) =  -217.821915005     A.U. after   15 cycles
 E2 =    -0.7695795988D+00 EUMP2 =    -0.21859149460399D+03
 CCSD(T)
 CCSD(T)= -0.21862213197D+03

 The electronic state is 2-A'.
 Alpha  occ. eigenvalues --  -15.41871 -15.41350 -15.41168 -15.40822  -1.23326
 Alpha  occ. eigenvalues --   -1.22701  -0.55479  -0.55078  -0.41961  -0.41490
 Alpha  occ. eigenvalues --   -0.39943  -0.39492  -0.37794  -0.37219   0.13048
 Alpha virt. eigenvalues --    0.24264   0.38557   0.38960   0.59781   0.60907
 Alpha virt. eigenvalues --    0.72984   0.75688   0.76087   0.76202   0.76874
 Alpha virt. eigenvalues --    0.80691   0.88764   0.89873   0.91081   0.93237

 Mulliken charges and spin densities:
               1          2
     1  N   -0.258998   0.253269
     2  N   -0.249314   0.255340
     3  N   -0.232445   0.252820
     4  N   -0.259242   0.238571
 Sum of Mulliken charges =  -1.00000   1.00000

 Dipole moment (field-independent basis, Debye):
    X=              0.0357    Y=              0.0895    Z=              0.0000  Tot=              0.0963
 Quadrupole moment (field-independent basis, Debye-Ang):
   XX=            -26.9103   YY=            -57.3250   ZZ=            -22.4868
   XY=             -3.4146   XZ=              0.0000   YZ=              0.0000

 \CCSD(T)=-218.622132\RMSD=5.609e-09\PG=CS [SG(N4)]\\@
 Normal termination of Gaussian 16 at Tue Feb 13 19:10:18 2024.
