 Gaussian 16, Revision A.03,
 Gaussian 16:  ES64L-G16RevA.03 25-Dec-2016

 -----------------------------------------------
 #p ROCCSD(T,MaxCyc=200)/cc-pVTZ SCF(MaxCyc=200)
 -----------------------------------------------

 --------
 N2_N2_91
 --------
 Symbolic Z-matrix:
 Charge = -1 Multiplicity = 2

                         Standard orientation:
 ---------------------------------------------------------------------
 Center     Atomic      Atomic             Coordinates (Angstroms)
 Number     Number       Type             X           Y           Z
 ---------------------------------------------------------------------
      1          7           0        0.578060   -1.950560    0.000000
      2          7           0       -0.192687   -1.179813    0.000000
      3          7           0       -0.192687    1.020187   -0.000000
      4          7           0       -0.192687    2.110186   -0.000000
 ---------------------------------------------------------------------

 SCF Done:  E(ROHF) =  -217.812304041     A.U. after   20 cycles
 E2 =    -0.7700287729D+00 EUMP2 =    -0.21858233281378D+03
 CCSD(T)
 CCSD(T)= -0.21861815378D+03

 The electronic state is 2-A".
 Alpha  occ. eigenvalues --  -15.42378 -15.41377 -15.34488 -15.33185  -1.23429
 Alpha  occ. eigenvalues --   -1.16520  -0.57544  -0.49065  -0.40877  -0.40682
 Alpha  occ. eigenvalues --   -0.37877  -0.36415  -0.32274  -0.28519   0.10307
 Alpha virt. eigenvalues --    0.33695   0.38838   0.45982   0.62805   0.67307
 Alpha virt. eigenvalues --    0.74587   0.75593   0.82285   0.83577   0.86556
 Alpha virt. eigenvalues --    0.88224   0.89449   0.93443   1.03400   1.03575

 Mulliken charges and spin densities:
               1          2
     1  N   -0.341130   0.319566
     2  N   -0.305406   0.330698
     3  N   -0.146943   0.194995
     4  N   -0.206520   0.154741
 Sum of Mulliken charges =  -1.00000   1.00000

 Dipole moment (field-independent basis, Debye):
    X=             -0.4376    Y=              2.0604    Z=             -0.0000  Tot=              2.1064
 Quadrupole moment (field-independent basis, Debye-Ang):
   XX=            -24.6812   YY=            -41.5382   ZZ=            -24.4311
   XY=              3.6125   XZ=              0.0000   YZ=              0.0000

 5\CCSD=-218.5791641\CCSD(T)=-218.6181538\RMSD=8.499e-09\PG=CS [SG(N4)]
 Normal termination of Gaussian 16 at Tue Feb 13 14:48:16 2024.
