 Gaussian 16, Revision A.03,
 Gaussian 16:  ES64L-G16RevA.03 25-Dec-2016

 -----------------------------------------------
 #p ROCCSD(T,MaxCyc=200)/cc-pVTZ SCF(MaxCyc=200)
 -----------------------------------------------

 ---------
 N2_N2_236
 ---------
 Symbolic Z-matrix:
 Charge = -1 Multiplicity = 2

                         Standard orientation:
 ---------------------------------------------------------------------
 Center     Atomic      Atomic             Coordinates (Angstroms)
 Number     Number       Type             X           Y           Z
 ---------------------------------------------------------------------
      1          7           0       -0.817500   -2.332500    0.000000
      2          7           0        0.272500   -2.332500    0.000000
      3          7           0        0.272500    1.787500    0.000000
      4          7           0        0.272500    2.877500    0.000000
 ---------------------------------------------------------------------

 SCF Done:  E(ROHF) =  -217.823198366     A.U. after   16 cycles
 E2 =    -0.7693441025D+00 EUMP2 =    -0.21859254246845D+03
 CCSD(T)
 CCSD(T)= -0.21862371612D+03

 The electronic state is 2-A'.
 Alpha  occ. eigenvalues --  -15.41686 -15.41104 -15.40875 -15.40530  -1.23097
 Alpha  occ. eigenvalues --   -1.22387  -0.55215  -0.54769  -0.41689  -0.41176
 Alpha  occ. eigenvalues --   -0.39687  -0.39157  -0.37561  -0.36911   0.12925
 Alpha virt. eigenvalues --    0.25058   0.38805   0.39264   0.59385   0.61224
 Alpha virt. eigenvalues --    0.72264   0.75870   0.76288   0.76401   0.77311
 Alpha virt. eigenvalues --    0.82462   0.88938   0.89761   0.92830   0.94145

 Mulliken charges and spin densities:
               1          2
     1  N   -0.261433   0.253618
     2  N   -0.247976   0.256288
     3  N   -0.232949   0.253644
     4  N   -0.257642   0.236451
 Sum of Mulliken charges =  -1.00000   1.00000

 Dipole moment (field-independent basis, Debye):
    X=              0.0418    Y=              0.0949    Z=              0.0000  Tot=              0.1036
 Quadrupole moment (field-independent basis, Debye-Ang):
   XX=            -26.9415   YY=            -54.1032   ZZ=            -22.4923
   XY=             -3.2458   XZ=              0.0000   YZ=              0.0000

 92\CCSD(T)=-218.6237161\RMSD=2.314e-09\PG=CS [SG(N4)]\\@
 Normal termination of Gaussian 16 at Tue Feb 13 18:30:39 2024.
