 Gaussian 16, Revision A.03,
 Gaussian 16:  ES64L-G16RevA.03 25-Dec-2016

 -----------------------------------------------
 #p ROCCSD(T,MaxCyc=200)/cc-pVTZ SCF(MaxCyc=200)
 -----------------------------------------------

 --------
 N2_N2_66
 --------
 Symbolic Z-matrix:
 Charge = -1 Multiplicity = 2

                         Standard orientation:
 ---------------------------------------------------------------------
 Center     Atomic      Atomic             Coordinates (Angstroms)
 Number     Number       Type             X           Y           Z
 ---------------------------------------------------------------------
      1          7           0        0.000000    0.000000    2.030000
      2          7           0        0.000000    0.000000    0.940000
      3          7           0        0.000000    0.000000   -0.940000
      4          7           0        0.000000    0.000000   -2.030000
 ---------------------------------------------------------------------

 SCF Done:  E(ROHF) =  -217.747138182     A.U. after   12 cycles
 E2 =    -0.7760594108D+00 EUMP2 =    -0.21852319759279D+03
 CCSD(T)
 CCSD(T)= -0.21855611206D+03

 Unable to determine electronic state:  an orbital has unidentified symmetry.
 Alpha  occ. eigenvalues --  -15.36099 -15.36098 -15.35743 -15.35741  -1.19229
 Alpha  occ. eigenvalues --   -1.18303  -0.61610  -0.46954  -0.40581  -0.39428
 Alpha  occ. eigenvalues --   -0.35842  -0.34712  -0.32073  -0.22303   0.08825
 Alpha virt. eigenvalues --    0.37775   0.38381   0.47970   0.63311   0.65383
 Alpha virt. eigenvalues --    0.77525   0.77690   0.82682   0.83777   0.88405
 Alpha virt. eigenvalues --    0.91352   0.95120   0.97529   1.04501   1.09595

 Mulliken charges and spin densities:
               1          2
     1  N   -0.224610   0.231516
     2  N   -0.275390   0.268484
     3  N   -0.275390   0.268484
     4  N   -0.224610   0.231516
 Sum of Mulliken charges =  -1.00000   1.00000

 Dipole moment (field-independent basis, Debye):
    X=             -0.0000    Y=             -0.0000    Z=             -0.0000  Tot=              0.0000
 Quadrupole moment (field-independent basis, Debye-Ang):
   XX=            -24.4536   YY=            -22.5649   ZZ=            -43.1047
   XY=              0.0000   XZ=              0.0000   YZ=             -0.0000

 382\PMP2-0=-218.5231976\MP4SDQ=-218.5210518\CCSD=-218.516841\CCSD(T)=-
 Normal termination of Gaussian 16 at Tue Feb 13 14:13:02 2024.
