 Gaussian 16, Revision A.03,
 Gaussian 16:  ES64L-G16RevA.03 25-Dec-2016

 -----------------------------------------------
 #p ROCCSD(T,MaxCyc=200)/cc-pVTZ SCF(MaxCyc=200)
 -----------------------------------------------

 --------
 N2_N2_42
 --------
 Symbolic Z-matrix:
 Charge = -1 Multiplicity = 2

                         Standard orientation:
 ---------------------------------------------------------------------
 Center     Atomic      Atomic             Coordinates (Angstroms)
 Number     Number       Type             X           Y           Z
 ---------------------------------------------------------------------
      1          7           0        0.000000    0.000000    1.870000
      2          7           0        0.000000    0.000000    0.780000
      3          7           0        0.000000    0.000000   -0.780000
      4          7           0        0.000000    0.000000   -1.870000
 ---------------------------------------------------------------------

 SCF Done:  E(ROHF) =  -217.568350754     A.U. after   12 cycles
 E2 =    -0.7946341495D+00 EUMP2 =    -0.21836298490395D+03
 CCSD(T)
 CCSD(T)= -0.21839406185D+03

 Unable to determine electronic state:  an orbital has unidentified symmetry.
 Alpha  occ. eigenvalues --  -15.34107 -15.34106 -15.33232 -15.33221  -1.18749
 Alpha  occ. eigenvalues --   -1.16407  -0.71312  -0.44679  -0.40518  -0.40353
 Alpha  occ. eigenvalues --   -0.35264  -0.33787  -0.29465  -0.07411   0.06156
 Alpha virt. eigenvalues --    0.37396   0.42642   0.51624   0.63365   0.64834
 Alpha virt. eigenvalues --    0.78484   0.78652   0.83933   0.84356   0.85580
 Alpha virt. eigenvalues --    0.90704   0.97297   0.99623   1.05477   1.12228

 Mulliken charges and spin densities:
               1          2
     1  N   -0.096219   0.252592
     2  N   -0.403781   0.247408
     3  N   -0.403781   0.247408
     4  N   -0.096219   0.252592
 Sum of Mulliken charges =  -1.00000   1.00000

 Dipole moment (field-independent basis, Debye):
    X=             -0.0000    Y=             -0.0000    Z=              0.0000  Tot=              0.0000
 Quadrupole moment (field-independent basis, Debye-Ang):
   XX=            -22.5393   YY=            -24.2695   ZZ=            -41.5699
   XY=              0.0000   XZ=              0.0000   YZ=             -0.0000

 508\PMP2-0=-218.3629849\MP4SDQ=-218.3573145\CCSD=-218.352136\CCSD(T)=-
 Normal termination of Gaussian 16 at Tue Feb 13 13:30:44 2024.
