 Gaussian 16, Revision A.03,
 Gaussian 16:  ES64L-G16RevA.03 25-Dec-2016

 -----------------------------------------------
 #p ROCCSD(T,MaxCyc=200)/cc-pVTZ SCF(MaxCyc=200)
 -----------------------------------------------

 ---------
 N2_N2_268
 ---------
 Symbolic Z-matrix:
 Charge = -1 Multiplicity = 2

                         Standard orientation:
 ---------------------------------------------------------------------
 Center     Atomic      Atomic             Coordinates (Angstroms)
 Number     Number       Type             X           Y           Z
 ---------------------------------------------------------------------
      1          7           0        0.578060   -3.130560    0.000000
      2          7           0       -0.192687   -2.359813    0.000000
      3          7           0       -0.192687    2.200187    0.000000
      4          7           0       -0.192687    3.290186    0.000000
 ---------------------------------------------------------------------

 SCF Done:  E(ROHF) =  -217.820165256     A.U. after   15 cycles
 E2 =    -0.7700569089D+00 EUMP2 =    -0.21859022216464D+03
 CCSD(T)
 CCSD(T)= -0.21861949907D+03

 The electronic state is 2-A".
 Alpha  occ. eigenvalues --  -15.42064 -15.41741 -15.41609 -15.41310  -1.23582
 Alpha  occ. eigenvalues --   -1.23277  -0.55803  -0.55543  -0.42328  -0.42048
 Alpha  occ. eigenvalues --   -0.40249  -0.39987  -0.38055  -0.37734   0.13218
 Alpha virt. eigenvalues --    0.23093   0.38252   0.38478   0.57555   0.63025
 Alpha virt. eigenvalues --    0.73412   0.75686   0.75860   0.76028   0.76197
 Alpha virt. eigenvalues --    0.78820   0.88529   0.88965   0.90783   0.91684

 Mulliken charges and spin densities:
               1          2
     1  N   -0.265198   0.247562
     2  N   -0.238389   0.256088
     3  N   -0.236182   0.253661
     4  N   -0.260231   0.242690
 Sum of Mulliken charges =  -1.00000   1.00000

 Dipole moment (field-independent basis, Debye):
    X=             -0.0683    Y=              0.0565    Z=             -0.0000  Tot=              0.0886
 Quadrupole moment (field-independent basis, Debye-Ang):
   XX=            -24.2547   YY=            -65.1253   ZZ=            -24.2597
   XY=              4.3306   XZ=              0.0000   YZ=              0.0000

 57466\CCSD=-218.583724\CCSD(T)=-218.6194991\RMSD=5.706e-09\PG=CS [SG(N
 Normal termination of Gaussian 16 at Tue Feb 13 19:33:24 2024.
