 Gaussian 16, Revision A.03,
 Gaussian 16:  ES64L-G16RevA.03 25-Dec-2016

 -----------------------------------------------
 #p ROCCSD(T,MaxCyc=200)/cc-pVTZ SCF(MaxCyc=200)
 -----------------------------------------------

 ---------
 N2_N2_179
 ---------
 Symbolic Z-matrix:
 Charge = -1 Multiplicity = 2

                         Standard orientation:
 ---------------------------------------------------------------------
 Center     Atomic      Atomic             Coordinates (Angstroms)
 Number     Number       Type             X           Y           Z
 ---------------------------------------------------------------------
      1          7           0       -0.817500   -1.952500    0.000000
      2          7           0        0.272500   -1.952500    0.000000
      3          7           0        0.272500    1.407500    0.000000
      4          7           0        0.272500    2.497500    0.000000
 ---------------------------------------------------------------------

 SCF Done:  E(ROHF) =  -217.829234266     A.U. after   17 cycles
 E2 =    -0.7686971482D+00 EUMP2 =    -0.21859793141438D+03
 CCSD(T)
 CCSD(T)= -0.21863042768D+03

 The electronic state is 2-A'.
 Alpha  occ. eigenvalues --  -15.41336 -15.40449 -15.39683 -15.39333  -1.22520
 Alpha  occ. eigenvalues --   -1.21136  -0.54513  -0.53574  -0.40868  -0.40346
 Alpha  occ. eigenvalues --   -0.38817  -0.37637  -0.36970  -0.35693   0.12260
 Alpha virt. eigenvalues --    0.28061   0.39443   0.40453   0.60776   0.63071
 Alpha virt. eigenvalues --    0.71753   0.75960   0.76104   0.77685   0.79215
 Alpha virt. eigenvalues --    0.83621   0.88691   0.89679   0.94771   0.96514

 Mulliken charges and spin densities:
               1          2
     1  N   -0.277952   0.257896
     2  N   -0.242860   0.263500
     3  N   -0.232527   0.254796
     4  N   -0.246661   0.223807
 Sum of Mulliken charges =  -1.00000   1.00000

 Dipole moment (field-independent basis, Debye):
    X=              0.1033    Y=              0.2413    Z=              0.0000  Tot=              0.2625
 Quadrupole moment (field-independent basis, Debye-Ang):
   XX=            -27.0770   YY=            -46.3043   ZZ=            -22.5123
   XY=             -2.7696   XZ=              0.0000   YZ=              0.0000

 547\CCSD(T)=-218.6304277\RMSD=2.573e-09\PG=CS [SG(N4)]\\@
 Normal termination of Gaussian 16 at Tue Feb 13 17:00:33 2024.
