 Gaussian 16, Revision A.03,
 Gaussian 16:  ES64L-G16RevA.03 25-Dec-2016

 -----------------------------------------------
 #p ROCCSD(T,MaxCyc=200)/cc-pVTZ SCF(MaxCyc=200)
 -----------------------------------------------

 ---------
 N2_N2_187
 ---------
 Symbolic Z-matrix:
 Charge = -1 Multiplicity = 2

                         Standard orientation:
 ---------------------------------------------------------------------
 Center     Atomic      Atomic             Coordinates (Angstroms)
 Number     Number       Type             X           Y           Z
 ---------------------------------------------------------------------
      1          7           0        0.578060   -2.590560    0.000000
      2          7           0       -0.192687   -1.819814   -0.000000
      3          7           0       -0.192687    1.660187   -0.000000
      4          7           0       -0.192687    2.750186   -0.000000
 ---------------------------------------------------------------------

 SCF Done:  E(ROHF) =  -217.823697774     A.U. after   16 cycles
 E2 =    -0.7693065506D+00 EUMP2 =    -0.21859300432427D+03
 CCSD(T)
 CCSD(T)= -0.21862471223D+03

 The electronic state is 2-A".
 Alpha  occ. eigenvalues --  -15.41302 -15.40644 -15.40599 -15.39941  -1.22684
 Alpha  occ. eigenvalues --   -1.22007  -0.54939  -0.54079  -0.41333  -0.40712
 Alpha  occ. eigenvalues --   -0.39480  -0.38452  -0.37144  -0.36398   0.12838
 Alpha virt. eigenvalues --    0.26017   0.39072   0.39905   0.59522   0.64593
 Alpha virt. eigenvalues --    0.72291   0.75532   0.75826   0.77800   0.78425
 Alpha virt. eigenvalues --    0.85276   0.89240   0.89978   0.91598   0.95656

 Mulliken charges and spin densities:
               1          2
     1  N   -0.265969   0.246323
     2  N   -0.243167   0.262816
     3  N   -0.242589   0.255651
     4  N   -0.248275   0.235210
 Sum of Mulliken charges =  -1.00000   1.00000

 Dipole moment (field-independent basis, Debye):
    X=             -0.1076    Y=              0.1436    Z=             -0.0000  Tot=              0.1795
 Quadrupole moment (field-independent basis, Debye-Ang):
   XX=            -24.3098   YY=            -52.5070   ZZ=            -24.3390
   XY=              3.8907   XZ=              0.0000   YZ=              0.0000

 98051\CCSD=-218.5864841\CCSD(T)=-218.6247122\RMSD=4.453e-09\PG=CS [SG(
 Normal termination of Gaussian 16 at Tue Feb 13 17:12:42 2024.
