 Gaussian 16, Revision A.03,
 Gaussian 16:  ES64L-G16RevA.03 25-Dec-2016

 -----------------------------------------------
 #p ROCCSD(T,MaxCyc=200)/cc-pVTZ SCF(MaxCyc=200)
 -----------------------------------------------

 ---------
 N2_N2_270
 ---------
 Symbolic Z-matrix:
 Charge = -1 Multiplicity = 2

                         Standard orientation:
 ---------------------------------------------------------------------
 Center     Atomic      Atomic             Coordinates (Angstroms)
 Number     Number       Type             X           Y           Z
 ---------------------------------------------------------------------
      1          7           0        0.000000    0.000000    3.390000
      2          7           0        0.000000    0.000000    2.300000
      3          7           0        0.000000    0.000000   -2.300000
      4          7           0        0.000000    0.000000   -3.390000
 ---------------------------------------------------------------------

 SCF Done:  E(ROHF) =  -217.819792824     A.U. after   11 cycles
 E2 =    -0.7701089108D+00 EUMP2 =    -0.21858990173483D+03
 CCSD(T)
 CCSD(T)= -0.21862024466D+03

 Unable to determine electronic state:  an orbital has unidentified symmetry.
 Alpha  occ. eigenvalues --  -15.41982 -15.41981 -15.41532 -15.41532  -1.23521
 Alpha  occ. eigenvalues --   -1.23517  -0.55802  -0.55674  -0.42372  -0.42171
 Alpha  occ. eigenvalues --   -0.40243  -0.40102  -0.37999  -0.37992   0.13255
 Alpha virt. eigenvalues --    0.22922   0.38225   0.38393   0.55849   0.64327
 Alpha virt. eigenvalues --    0.73157   0.75658   0.75886   0.75952   0.76140
 Alpha virt. eigenvalues --    0.80073   0.88546   0.88782   0.90746   0.91609

 Mulliken charges and spin densities:
               1          2
     1  N   -0.260977   0.244577
     2  N   -0.239023   0.255423
     3  N   -0.239023   0.255423
     4  N   -0.260977   0.244577
 Sum of Mulliken charges =  -1.00000   1.00000

 Dipole moment (field-independent basis, Debye):
    X=             -0.0000    Y=              0.0000    Z=              0.0000  Tot=              0.0000
 Quadrupole moment (field-independent basis, Debye-Ang):
   XX=            -22.4845   YY=            -24.2613   ZZ=            -69.6479
   XY=              0.0000   XZ=              0.0000   YZ=             -0.0000

 28\PMP2-0=-218.5899017\MP4SDQ=-218.5853612\CCSD=-218.5820535\CCSD(T)=-
 Normal termination of Gaussian 16 at Tue Feb 13 19:36:59 2024.
