 Gaussian 16, Revision A.03,
 Gaussian 16:  ES64L-G16RevA.03 25-Dec-2016

 -----------------------------------------------
 #p ROCCSD(T,MaxCyc=200)/cc-pVTZ SCF(MaxCyc=200)
 -----------------------------------------------

 --------
 N2_N2_38
 --------
 Symbolic Z-matrix:
 Charge = -1 Multiplicity = 2

                         Standard orientation:
 ---------------------------------------------------------------------
 Center     Atomic      Atomic             Coordinates (Angstroms)
 Number     Number       Type             X           Y           Z
 ---------------------------------------------------------------------
      1          7           0       -0.817500   -1.012500    0.000000
      2          7           0        0.272500   -1.012500    0.000000
      3          7           0        0.272500    0.467500    0.000000
      4          7           0        0.272500    1.557500    0.000000
 ---------------------------------------------------------------------

 SCF Done:  E(ROHF) =  -217.596317382     A.U. after   20 cycles
 E2 =    -0.7673450005D+00 EUMP2 =    -0.21836366238248D+03
 CCSD(T)
 CCSD(T)= -0.21841047710D+03

 The electronic state is 2-A".
 Alpha  occ. eigenvalues --  -15.44492 -15.34172 -15.32256 -15.29655  -1.25948
 Alpha  occ. eigenvalues --   -1.15070  -0.69231  -0.50712  -0.45512  -0.40179
 Alpha  occ. eigenvalues --   -0.35556  -0.33242  -0.30539  -0.08786   0.02335
 Alpha virt. eigenvalues --    0.42105   0.43746   0.51158   0.62263   0.65812
 Alpha virt. eigenvalues --    0.72273   0.77392   0.77965   0.85105   0.85941
 Alpha virt. eigenvalues --    0.92965   0.96091   0.97170   0.98938   1.04123

 Mulliken charges and spin densities:
               1          2
     1  N   -0.448360   0.048391
     2  N    0.027552   0.010002
     3  N   -0.201903   0.396970
     4  N   -0.377289   0.544637
 Sum of Mulliken charges =  -1.00000   1.00000

 Dipole moment (field-independent basis, Debye):
    X=              1.0280    Y=             -1.1554    Z=              0.0000  Tot=              1.5465
 Quadrupole moment (field-independent basis, Debye-Ang):
   XX=            -26.6314   YY=            -36.2208   ZZ=            -23.2516
   XY=             -3.2937   XZ=              0.0000   YZ=              0.0000

 14\CCSD(T)=-218.4104771\RMSD=8.488e-09\PG=CS [SG(N4)]\\@
 Normal termination of Gaussian 16 at Tue Feb 13 13:23:58 2024.
