 Gaussian 16, Revision A.03,
 Gaussian 16:  ES64L-G16RevA.03 25-Dec-2016

 -----------------------------------------------
 #p ROCCSD(T,MaxCyc=200)/cc-pVTZ SCF(MaxCyc=200)
 -----------------------------------------------

 --------
 N2_N2_77
 --------
 Symbolic Z-matrix:
 Charge = -1 Multiplicity = 2

                         Standard orientation:
 ---------------------------------------------------------------------
 Center     Atomic      Atomic             Coordinates (Angstroms)
 Number     Number       Type             X           Y           Z
 ---------------------------------------------------------------------
      1          7           0       -0.817500   -1.272500    0.000000
      2          7           0        0.272500   -1.272500    0.000000
      3          7           0        0.272500    0.727500    0.000000
      4          7           0        0.272500    1.817500    0.000000
 ---------------------------------------------------------------------

 SCF Done:  E(ROHF) =  -217.785191733     A.U. after   20 cycles
 E2 =    -0.7730618457D+00 EUMP2 =    -0.21855825357904D+03
 CCSD(T)
 CCSD(T)= -0.21859405710D+03

 The electronic state is 2-A'.
 Alpha  occ. eigenvalues --  -15.42594 -15.41092 -15.30277 -15.29849  -1.23227
 Alpha  occ. eigenvalues --   -1.13787  -0.56648  -0.51738  -0.40208  -0.38841
 Alpha  occ. eigenvalues --   -0.37804  -0.35522  -0.28439  -0.24149   0.07883
 Alpha virt. eigenvalues --    0.38828   0.39220   0.46537   0.60913   0.67560
 Alpha virt. eigenvalues --    0.74379   0.76053   0.77071   0.83751   0.85788
 Alpha virt. eigenvalues --    0.93775   0.94451   0.96631   1.00767   1.02957

 Mulliken charges and spin densities:
               1          2
     1  N   -0.169083   0.074753
     2  N   -0.065183   0.121127
     3  N   -0.409797   0.402116
     4  N   -0.355937   0.402004
 Sum of Mulliken charges =  -1.00000   1.00000

 Dipole moment (field-independent basis, Debye):
    X=             -0.3534    Y=             -2.9504    Z=              0.0000  Tot=              2.9715
 Quadrupole moment (field-independent basis, Debye-Ang):
   XX=            -26.6902   YY=            -37.3904   ZZ=            -22.4658
   XY=             -2.1833   XZ=              0.0000   YZ=              0.0000

 \CCSD(T)=-218.5940571\RMSD=2.984e-09\PG=CS [SG(N4)]\\@
 Normal termination of Gaussian 16 at Tue Feb 13 14:30:59 2024.
