 Gaussian 16, Revision A.03,
 Gaussian 16:  ES64L-G16RevA.03 25-Dec-2016

 -----------------------------------------------
 #p ROCCSD(T,MaxCyc=200)/cc-pVTZ SCF(MaxCyc=200)
 -----------------------------------------------

 ---------
 N2_N2_284
 ---------
 Symbolic Z-matrix:
 Charge = -1 Multiplicity = 2

                         Standard orientation:
 ---------------------------------------------------------------------
 Center     Atomic      Atomic             Coordinates (Angstroms)
 Number     Number       Type             X           Y           Z
 ---------------------------------------------------------------------
      1          7           0       -0.817500   -2.652500    0.000000
      2          7           0        0.272500   -2.652500    0.000000
      3          7           0        0.272500    2.107500    0.000000
      4          7           0        0.272500    3.197500    0.000000
 ---------------------------------------------------------------------

 SCF Done:  E(ROHF) =  -217.820891697     A.U. after   15 cycles
 E2 =    -0.7698566393D+00 EUMP2 =    -0.21859074833605D+03
 CCSD(T)
 CCSD(T)= -0.21862023618D+03

 The electronic state is 2-A'.
 Alpha  occ. eigenvalues --  -15.42118 -15.41648 -15.41506 -15.41160  -1.23610
 Alpha  occ. eigenvalues --   -1.23057  -0.55794  -0.55429  -0.42281  -0.41857
 Alpha  occ. eigenvalues --   -0.40254  -0.39855  -0.38080  -0.37569   0.13145
 Alpha virt. eigenvalues --    0.23416   0.38254   0.38616   0.60132   0.60586
 Alpha virt. eigenvalues --    0.73911   0.75401   0.75763   0.75993   0.76456
 Alpha virt. eigenvalues --    0.78381   0.88536   0.89272   0.90805   0.92085

 Mulliken charges and spin densities:
               1          2
     1  N   -0.257080   0.252967
     2  N   -0.250302   0.254528
     3  N   -0.233023   0.252108
     4  N   -0.259594   0.240397
 Sum of Mulliken charges =  -1.00000   1.00000

 Dipole moment (field-independent basis, Debye):
    X=              0.0313    Y=              0.0903    Z=              0.0000  Tot=              0.0956
 Quadrupole moment (field-independent basis, Debye-Ang):
   XX=            -26.8823   YY=            -61.7222   ZZ=            -22.4815
   XY=             -3.6313   XZ=              0.0000   YZ=              0.0000

 141\CCSD(T)=-218.6202362\RMSD=3.143e-09\PG=CS [SG(N4)]\\@
 Normal termination of Gaussian 16 at Tue Feb 13 20:17:57 2024.
