 Gaussian 16, Revision A.03,
 Gaussian 16:  ES64L-G16RevA.03 25-Dec-2016

 -----------------------------------------------
 #p ROCCSD(T,MaxCyc=200)/cc-pVTZ SCF(MaxCyc=200)
 -----------------------------------------------

 ---------
 N2_N2_142
 ---------
 Symbolic Z-matrix:
 Charge = -1 Multiplicity = 2

                         Standard orientation:
 ---------------------------------------------------------------------
 Center     Atomic      Atomic             Coordinates (Angstroms)
 Number     Number       Type             X           Y           Z
 ---------------------------------------------------------------------
      1          7           0        0.578060   -2.290560    0.000000
      2          7           0       -0.192687   -1.519814    0.000000
      3          7           0       -0.192687    1.360187   -0.000000
      4          7           0       -0.192687    2.450187   -0.000000
 ---------------------------------------------------------------------

 SCF Done:  E(ROHF) =  -217.827249612     A.U. after   17 cycles
 E2 =    -0.7688505591D+00 EUMP2 =    -0.21859610017069D+03
 CCSD(T)
 CCSD(T)= -0.21862884211D+03

 The electronic state is 2-A".
 Alpha  occ. eigenvalues --  -15.40929 -15.40040 -15.39484 -15.38506  -1.22170
 Alpha  occ. eigenvalues --   -1.20786  -0.54797  -0.52514  -0.40681  -0.39466
 Alpha  occ. eigenvalues --   -0.39448  -0.36857  -0.36547  -0.34840   0.12185
 Alpha virt. eigenvalues --    0.28762   0.39551   0.41564   0.63752   0.65015
 Alpha virt. eigenvalues --    0.74759   0.75461   0.76474   0.79443   0.80819
 Alpha virt. eigenvalues --    0.86427   0.89674   0.90228   0.95049   0.98959

 Mulliken charges and spin densities:
               1          2
     1  N   -0.272704   0.247841
     2  N   -0.249140   0.273910
     3  N   -0.232340   0.255290
     4  N   -0.245816   0.222959
 Sum of Mulliken charges =  -1.00000   1.00000

 Dipole moment (field-independent basis, Debye):
    X=             -0.1554    Y=              0.3435    Z=             -0.0000  Tot=              0.3770
 Quadrupole moment (field-independent basis, Debye-Ang):
   XX=            -24.3768   YY=            -46.7286   ZZ=            -24.4184
   XY=              3.6637   XZ=             -0.0000   YZ=              0.0000

 38681\CCSD=-218.5904703\CCSD(T)=-218.6288421\RMSD=3.754e-09\PG=CS [SG(
 Normal termination of Gaussian 16 at Tue Feb 13 16:06:03 2024.
