 Gaussian 16, Revision A.03,
 Gaussian 16:  ES64L-G16RevA.03 25-Dec-2016

 -----------------------------------------------
 #p ROCCSD(T,MaxCyc=200)/cc-pVTZ SCF(MaxCyc=200)
 -----------------------------------------------

 --------
 N2_N2_86
 --------
 Symbolic Z-matrix:
 Charge = -1 Multiplicity = 2

                         Standard orientation:
 ---------------------------------------------------------------------
 Center     Atomic      Atomic             Coordinates (Angstroms)
 Number     Number       Type             X           Y           Z
 ---------------------------------------------------------------------
      1          7           0       -0.817500   -1.332500    0.000000
      2          7           0        0.272500   -1.332500    0.000000
      3          7           0        0.272500    0.787500    0.000000
      4          7           0        0.272500    1.877500    0.000000
 ---------------------------------------------------------------------

 SCF Done:  E(ROHF) =  -217.805443014     A.U. after   33 cycles
 E2 =    -0.7687479922D+00 EUMP2 =    -0.21857419100569D+03
 CCSD(T)
 CCSD(T)= -0.21861123551D+03

 The electronic state is 2-A'.
 Alpha  occ. eigenvalues --  -15.43790 -15.42793 -15.29864 -15.29504  -1.24180
 Alpha  occ. eigenvalues --   -1.13356  -0.56360  -0.51177  -0.41131  -0.39007
 Alpha  occ. eigenvalues --   -0.38718  -0.35348  -0.28104  -0.26080   0.08217
 Alpha virt. eigenvalues --    0.38037   0.38042   0.46691   0.60407   0.67944
 Alpha virt. eigenvalues --    0.74729   0.75589   0.76377   0.83568   0.85675
 Alpha virt. eigenvalues --    0.93313   0.93746   0.96551   0.98855   1.02774

 Mulliken charges and spin densities:
               1          2
     1  N   -0.144982   0.070511
     2  N   -0.059582   0.103459
     3  N   -0.429817   0.412114
     4  N   -0.365620   0.413915
 Sum of Mulliken charges =  -1.00000   1.00000

 Dipole moment (field-independent basis, Debye):
    X=             -0.4947    Y=             -3.4933    Z=              0.0000  Tot=              3.5281
 Quadrupole moment (field-independent basis, Debye-Ang):
   XX=            -26.6324   YY=            -37.8948   ZZ=            -22.4936
   XY=             -2.1875   XZ=              0.0000   YZ=              0.0000

 Normal termination of Gaussian 16 at Tue Feb 13 14:41:35 2024.
