 Gaussian 16, Revision A.03,
 Gaussian 16:  ES64L-G16RevA.03 25-Dec-2016

 -----------------------------------------------
 #p ROCCSD(T,MaxCyc=200)/cc-pVTZ SCF(MaxCyc=200)
 -----------------------------------------------

 --------
 N2_N2_17
 --------
 Symbolic Z-matrix:
 Charge = -1 Multiplicity = 2

                         Standard orientation:
 ---------------------------------------------------------------------
 Center     Atomic      Atomic             Coordinates (Angstroms)
 Number     Number       Type             X           Y           Z
 ---------------------------------------------------------------------
      1          7           0       -0.817500   -0.872500    0.000000
      2          7           0        0.272500   -0.872500    0.000000
      3          7           0        0.272500    0.327500    0.000000
      4          7           0        0.272500    1.417500    0.000000
 ---------------------------------------------------------------------

 SCF Done:  E(ROHF) =  -217.498808644     A.U. after   33 cycles
 E2 =    -0.7903399633D+00 EUMP2 =    -0.21828914860730D+03
 CCSD(T)
 CCSD(T)= -0.21832658109D+03

 The electronic state is 2-A".
 Alpha  occ. eigenvalues --  -15.45289 -15.41529 -15.33579 -15.26526  -1.38412
 Alpha  occ. eigenvalues --   -1.16817  -0.81690  -0.54662  -0.54483  -0.41284
 Alpha  occ. eigenvalues --   -0.35309  -0.31197  -0.30437  -0.03500   0.01729
 Alpha virt. eigenvalues --    0.43118   0.45029   0.59337   0.63676   0.65438
 Alpha virt. eigenvalues --    0.73420   0.75767   0.78409   0.84620   0.86179
 Alpha virt. eigenvalues --    0.91689   0.94244   0.99022   0.99668   1.01669

 Mulliken charges and spin densities:
               1          2
     1  N   -0.713265   0.254451
     2  N    0.036852   0.035966
     3  N    0.115026   0.242288
     4  N   -0.438612   0.467295
 Sum of Mulliken charges =  -1.00000   1.00000

 Dipole moment (field-independent basis, Debye):
    X=              1.8536    Y=             -0.1921    Z=              0.0000  Tot=              1.8635
 Quadrupole moment (field-independent basis, Debye-Ang):
   XX=            -27.8142   YY=            -35.6860   ZZ=            -22.7287
   XY=             -3.4560   XZ=              0.0000   YZ=              0.0000

 7\CCSD(T)=-218.3265811\RMSD=7.296e-09\PG=CS [SG(N4)]\\@
 Normal termination of Gaussian 16 at Tue Feb 13 12:48:47 2024.
