 Gaussian 16, Revision A.03,
 Gaussian 16:  ES64L-G16RevA.03 25-Dec-2016

 -----------------------------------------------
 #p ROCCSD(T,MaxCyc=200)/cc-pVTZ SCF(MaxCyc=200)
 -----------------------------------------------

 ---------
 N2_N2_164
 ---------
 Symbolic Z-matrix:
 Charge = -1 Multiplicity = 2

                         Standard orientation:
 ---------------------------------------------------------------------
 Center     Atomic      Atomic             Coordinates (Angstroms)
 Number     Number       Type             X           Y           Z
 ---------------------------------------------------------------------
      1          7           0       -0.817500   -1.852500    0.000000
      2          7           0        0.272500   -1.852500    0.000000
      3          7           0        0.272500    1.307500    0.000000
      4          7           0        0.272500    2.397500    0.000000
 ---------------------------------------------------------------------

 SCF Done:  E(ROHF) =  -217.831141592     A.U. after   16 cycles
 E2 =    -0.7686079971D+00 EUMP2 =    -0.21859974958911D+03
 CCSD(T)
 CCSD(T)= -0.21863262255D+03

 The electronic state is 2-A'.
 Alpha  occ. eigenvalues --  -15.41283 -15.40284 -15.39185 -15.38825  -1.22388
 Alpha  occ. eigenvalues --   -1.20641  -0.54368  -0.53120  -0.40638  -0.40278
 Alpha  occ. eigenvalues --   -0.38420  -0.36953  -0.36835  -0.35211   0.11973
 Alpha virt. eigenvalues --    0.29111   0.39588   0.40907   0.61426   0.64080
 Alpha virt. eigenvalues --    0.72727   0.75783   0.76252   0.78181   0.79898
 Alpha virt. eigenvalues --    0.83267   0.88768   0.90054   0.95058   0.97077

 Mulliken charges and spin densities:
               1          2
     1  N   -0.285534   0.260450
     2  N   -0.242296   0.267907
     3  N   -0.227763   0.253706
     4  N   -0.244408   0.217937
 Sum of Mulliken charges =  -1.00000   1.00000

 Dipole moment (field-independent basis, Debye):
    X=              0.1371    Y=              0.3331    Z=              0.0000  Tot=              0.3602
 Quadrupole moment (field-independent basis, Debye-Ang):
   XX=            -27.1220   YY=            -44.5135   ZZ=            -22.5184
   XY=             -2.6361   XZ=              0.0000   YZ=              0.0000

 982\CCSD(T)=-218.6326225\RMSD=7.573e-09\PG=CS [SG(N4)]\\@
 Normal termination of Gaussian 16 at Tue Feb 13 16:39:12 2024.
