 Gaussian 16, Revision A.03,
 Gaussian 16:  ES64L-G16RevA.03 25-Dec-2016

 -----------------------------------------------
 #p ROCCSD(T,MaxCyc=200)/cc-pVTZ SCF(MaxCyc=200)
 -----------------------------------------------

 ---------
 N2_N2_196
 ---------
 Symbolic Z-matrix:
 Charge = -1 Multiplicity = 2

                         Standard orientation:
 ---------------------------------------------------------------------
 Center     Atomic      Atomic             Coordinates (Angstroms)
 Number     Number       Type             X           Y           Z
 ---------------------------------------------------------------------
      1          7           0        0.578060   -2.650560    0.000000
      2          7           0       -0.192687   -1.879813    0.000000
      3          7           0       -0.192687    1.720186   -0.000000
      4          7           0       -0.192687    2.810187   -0.000000
 ---------------------------------------------------------------------

 SCF Done:  E(ROHF) =  -217.823032202     A.U. after   16 cycles
 E2 =    -0.7694172846D+00 EUMP2 =    -0.21859244948707D+03
 CCSD(T)
 CCSD(T)= -0.21862396358D+03

 The electronic state is 2-A".
 Alpha  occ. eigenvalues --  -15.41383 -15.40762 -15.40756 -15.40143  -1.22789
 Alpha  occ. eigenvalues --   -1.22187  -0.55023  -0.54301  -0.41458  -0.40902
 Alpha  occ. eigenvalues --   -0.39543  -0.38690  -0.37252  -0.36596   0.12916
 Alpha virt. eigenvalues --    0.25588   0.38978   0.39660   0.58678   0.64513
 Alpha virt. eigenvalues --    0.72176   0.75667   0.75880   0.77529   0.78065
 Alpha virt. eigenvalues --    0.84908   0.89153   0.90090   0.91174   0.94993

 Mulliken charges and spin densities:
               1          2
     1  N   -0.265841   0.246475
     2  N   -0.242051   0.261489
     3  N   -0.241943   0.255370
     4  N   -0.250164   0.236666
 Sum of Mulliken charges =  -1.00000   1.00000

 Dipole moment (field-independent basis, Debye):
    X=             -0.1017    Y=              0.1242    Z=             -0.0000  Tot=              0.1605
 Quadrupole moment (field-independent basis, Debye-Ang):
   XX=            -24.3008   YY=            -53.7738   ZZ=            -24.3254
   XY=              3.9390   XZ=              0.0000   YZ=              0.0000

 9068\CCSD=-218.5857723\CCSD(T)=-218.6239636\RMSD=4.877e-09\PG=CS [SG(N
 Normal termination of Gaussian 16 at Tue Feb 13 17:25:32 2024.
