 Gaussian 16, Revision A.03,
 Gaussian 16:  ES64L-G16RevA.03 25-Dec-2016

 -----------------------------------------------
 #p ROCCSD(T,MaxCyc=200)/cc-pVTZ SCF(MaxCyc=200)
 -----------------------------------------------

 ---------
 N2_N2_111
 ---------
 Symbolic Z-matrix:
 Charge = -1 Multiplicity = 2

                         Standard orientation:
 ---------------------------------------------------------------------
 Center     Atomic      Atomic             Coordinates (Angstroms)
 Number     Number       Type             X           Y           Z
 ---------------------------------------------------------------------
      1          7           0        0.000000    0.000000    2.330000
      2          7           0        0.000000    0.000000    1.240000
      3          7           0        0.000000    0.000000   -1.240000
      4          7           0        0.000000    0.000000   -2.330000
 ---------------------------------------------------------------------

 SCF Done:  E(ROHF) =  -217.823330208     A.U. after   12 cycles
 E2 =    -0.7684825365D+00 EUMP2 =    -0.21859181274473D+03
 CCSD(T)
 CCSD(T)= -0.21862491828D+03

 Unable to determine electronic state:  an orbital has unidentified symmetry.
 Alpha  occ. eigenvalues --  -15.39253 -15.39252 -15.38308 -15.38308  -1.20815
 Alpha  occ. eigenvalues --   -1.20615  -0.55468  -0.50814  -0.39934  -0.39829
 Alpha  occ. eigenvalues --   -0.38540  -0.35532  -0.34862  -0.33409   0.11329
 Alpha virt. eigenvalues --    0.31624   0.38854   0.43645   0.63543   0.66161
 Alpha virt. eigenvalues --    0.75865   0.76190   0.80461   0.81044   0.86989
 Alpha virt. eigenvalues --    0.90252   0.90722   0.90969   0.93561   1.04232

 Mulliken charges and spin densities:
               1          2
     1  N   -0.258974   0.228013
     2  N   -0.241026   0.271987
     3  N   -0.241026   0.271987
     4  N   -0.258974   0.228013
 Sum of Mulliken charges =  -1.00000   1.00000

 Dipole moment (field-independent basis, Debye):
    X=             -0.0000    Y=             -0.0000    Z=             -0.0000  Tot=              0.0000
 Quadrupole moment (field-independent basis, Debye-Ang):
   XX=            -22.5616   YY=            -24.5101   ZZ=            -46.8720
   XY=              0.0000   XZ=              0.0000   YZ=             -0.0000

 Normal termination of Gaussian 16 at Tue Feb 13 15:17:39 2024.
