 Gaussian 16, Revision A.03,
 Gaussian 16:  ES64L-G16RevA.03 25-Dec-2016

 -----------------------------------------------
 #p ROCCSD(T,MaxCyc=200)/cc-pVTZ SCF(MaxCyc=200)
 -----------------------------------------------

 --------
 N2_N2_56
 --------
 Symbolic Z-matrix:
 Charge = -1 Multiplicity = 2

                         Standard orientation:
 ---------------------------------------------------------------------
 Center     Atomic      Atomic             Coordinates (Angstroms)
 Number     Number       Type             X           Y           Z
 ---------------------------------------------------------------------
      1          7           0       -0.817500   -1.132500    0.000000
      2          7           0        0.272500   -1.132500    0.000000
      3          7           0        0.272500    0.587500    0.000000
      4          7           0        0.272500    1.677500    0.000000
 ---------------------------------------------------------------------

 SCF Done:  E(ROHF) =  -217.699981886     A.U. after   18 cycles
 E2 =    -0.7804534091D+00 EUMP2 =    -0.21848043529554D+03
 CCSD(T)
 CCSD(T)= -0.21851635153D+03

 The electronic state is 2-A'.
 Alpha  occ. eigenvalues --  -15.41792 -15.36624 -15.30506 -15.29965  -1.22724
 Alpha  occ. eigenvalues --   -1.14081  -0.61403  -0.51568  -0.39365  -0.38059
 Alpha  occ. eigenvalues --   -0.37319  -0.35734  -0.28216  -0.16822   0.06021
 Alpha virt. eigenvalues --    0.39786   0.43186   0.46867   0.61692   0.66772
 Alpha virt. eigenvalues --    0.72988   0.76861   0.78061   0.84335   0.86316
 Alpha virt. eigenvalues --    0.93601   0.95473   0.96740   1.03707   1.03853

 Mulliken charges and spin densities:
               1          2
     1  N   -0.230724   0.036566
     2  N   -0.047075   0.122824
     3  N   -0.363988   0.429643
     4  N   -0.358213   0.410967
 Sum of Mulliken charges =  -1.00000   1.00000

 Dipole moment (field-independent basis, Debye):
    X=              0.0439    Y=             -2.0860    Z=              0.0000  Tot=              2.0864
 Quadrupole moment (field-independent basis, Debye-Ang):
   XX=            -26.8588   YY=            -36.6672   ZZ=            -22.3095
   XY=             -2.4008   XZ=              0.0000   YZ=              0.0000

 98\CCSD(T)=-218.5163515\RMSD=8.910e-09\PG=CS [SG(N4)]\\@
 Normal termination of Gaussian 16 at Tue Feb 13 13:54:14 2024.
