 Gaussian 16, Revision A.03,
 Gaussian 16:  ES64L-G16RevA.03 25-Dec-2016

 -----------------------------------------------
 #p ROCCSD(T,MaxCyc=200)/cc-pVTZ SCF(MaxCyc=200)
 -----------------------------------------------

 ---------
 N2_N2_291
 ---------
 Symbolic Z-matrix:
 Charge = -1 Multiplicity = 2

                         Standard orientation:
 ---------------------------------------------------------------------
 Center     Atomic      Atomic             Coordinates (Angstroms)
 Number     Number       Type             X           Y           Z
 ---------------------------------------------------------------------
      1          7           0        0.000000    0.000000    3.530000
      2          7           0        0.000000    0.000000    2.440000
      3          7           0        0.000000    0.000000   -2.440000
      4          7           0        0.000000    0.000000   -3.530000
 ---------------------------------------------------------------------

 SCF Done:  E(ROHF) =  -217.819588012     A.U. after   11 cycles
 E2 =    -0.7702527523D+00 EUMP2 =    -0.21858984076441D+03
 CCSD(T)
 CCSD(T)= -0.21861996545D+03

 Unable to determine electronic state:  an orbital has unidentified symmetry.
 Alpha  occ. eigenvalues --  -15.42194 -15.42194 -15.41765 -15.41765  -1.23742
 Alpha  occ. eigenvalues --   -1.23739  -0.56018  -0.55930  -0.42586  -0.42413
 Alpha  occ. eigenvalues --   -0.40452  -0.40370  -0.38219  -0.38216   0.13277
 Alpha virt. eigenvalues --    0.22416   0.38036   0.38123   0.57058   0.63209
 Alpha virt. eigenvalues --    0.73662   0.75491   0.75620   0.75784   0.75877
 Alpha virt. eigenvalues --    0.77698   0.88355   0.88458   0.90714   0.91155

 Mulliken charges and spin densities:
               1          2
     1  N   -0.261416   0.245135
     2  N   -0.238584   0.254865
     3  N   -0.238584   0.254865
     4  N   -0.261416   0.245135
 Sum of Mulliken charges =  -1.00000   1.00000

 Dipole moment (field-independent basis, Debye):
    X=             -0.0000    Y=              0.0000    Z=             -0.0000  Tot=              0.0000
 Quadrupole moment (field-independent basis, Debye-Ang):
   XX=            -24.2533   YY=            -22.4814   ZZ=            -73.4844
   XY=              0.0000   XZ=              0.0000   YZ=             -0.0000

 88\PMP2-0=-218.5898408\MP4SDQ=-218.5850793\CCSD=-218.581791\CCSD(T)=-2
 Normal termination of Gaussian 16 at Tue Feb 13 20:38:41 2024.
