 Gaussian 16, Revision A.03,
 Gaussian 16:  ES64L-G16RevA.03 25-Dec-2016

 -----------------------------------------------
 #p ROCCSD(T,MaxCyc=200)/cc-pVTZ SCF(MaxCyc=200)
 -----------------------------------------------

 ---------
 N2_N2_138
 ---------
 Symbolic Z-matrix:
 Charge = -1 Multiplicity = 2

                         Standard orientation:
 ---------------------------------------------------------------------
 Center     Atomic      Atomic             Coordinates (Angstroms)
 Number     Number       Type             X           Y           Z
 ---------------------------------------------------------------------
      1          7           0        0.000000    0.000000    2.510000
      2          7           0        0.000000    0.000000    1.420000
      3          7           0        0.000000    0.000000   -1.420000
      4          7           0        0.000000    0.000000   -2.510000
 ---------------------------------------------------------------------

 SCF Done:  E(ROHF) =  -217.826846786     A.U. after   11 cycles
 E2 =    -0.7682874805D+00 EUMP2 =    -0.21859513426642D+03
 CCSD(T)
 CCSD(T)= -0.21862780653D+03

 Unable to determine electronic state:  an orbital has unidentified symmetry.
 Alpha  occ. eigenvalues --  -15.40140 -15.40139 -15.39242 -15.39242  -1.21524
 Alpha  occ. eigenvalues --   -1.21439  -0.54787  -0.52397  -0.40462  -0.39584
 Alpha  occ. eigenvalues --   -0.39480  -0.36102  -0.36059  -0.35795   0.12114
 Alpha virt. eigenvalues --    0.29111   0.38880   0.42036   0.63969   0.66007
 Alpha virt. eigenvalues --    0.75583   0.75938   0.77158   0.79320   0.79745
 Alpha virt. eigenvalues --    0.89615   0.89769   0.90148   0.92405   1.00986

 Mulliken charges and spin densities:
               1          2
     1  N   -0.253422   0.232249
     2  N   -0.246578   0.267751
     3  N   -0.246578   0.267751
     4  N   -0.253422   0.232249
 Sum of Mulliken charges =  -1.00000   1.00000

 Dipole moment (field-independent basis, Debye):
    X=             -0.0000    Y=              0.0000    Z=             -0.0000  Tot=              0.0000
 Quadrupole moment (field-independent basis, Debye-Ang):
   XX=            -24.4572   YY=            -22.5401   ZZ=            -49.8423
   XY=              0.0000   XZ=              0.0000   YZ=             -0.0000

 Normal termination of Gaussian 16 at Tue Feb 13 15:58:26 2024.
