 Gaussian 16, Revision A.03,
 Gaussian 16:  ES64L-G16RevA.03 25-Dec-2016

 -----------------------------------------------
 #p ROCCSD(T,MaxCyc=200)/cc-pVTZ SCF(MaxCyc=200)
 -----------------------------------------------

 ---------
 N2_N2_287
 ---------
 Symbolic Z-matrix:
 Charge = -1 Multiplicity = 2

                         Standard orientation:
 ---------------------------------------------------------------------
 Center     Atomic      Atomic             Coordinates (Angstroms)
 Number     Number       Type             X           Y           Z
 ---------------------------------------------------------------------
      1          7           0       -0.817500   -2.672500    0.000000
      2          7           0        0.272500   -2.672500    0.000000
      3          7           0        0.272500    2.127500    0.000000
      4          7           0        0.272500    3.217500    0.000000
 ---------------------------------------------------------------------

 SCF Done:  E(ROHF) =  -217.820812521     A.U. after   15 cycles
 E2 =    -0.7698853774D+00 EUMP2 =    -0.21859069789825D+03
 CCSD(T)
 CCSD(T)= -0.21862002309D+03

 The electronic state is 2-A'.
 Alpha  occ. eigenvalues --  -15.42146 -15.41680 -15.41542 -15.41197  -1.23640
 Alpha  occ. eigenvalues --   -1.23095  -0.55827  -0.55466  -0.42314  -0.41895
 Alpha  occ. eigenvalues --   -0.40286  -0.39893  -0.38110  -0.37606   0.13153
 Alpha virt. eigenvalues --    0.23332   0.38222   0.38580   0.60145   0.60555
 Alpha virt. eigenvalues --    0.73998   0.75368   0.75731   0.75966   0.76416
 Alpha virt. eigenvalues --    0.78165   0.88510   0.89210   0.90804   0.91989

 Mulliken charges and spin densities:
               1          2
     1  N   -0.256913   0.252933
     2  N   -0.250370   0.254449
     3  N   -0.233147   0.252055
     4  N   -0.259570   0.240563
 Sum of Mulliken charges =  -1.00000   1.00000

 Dipole moment (field-independent basis, Debye):
    X=              0.0309    Y=              0.0903    Z=              0.0000  Tot=              0.0955
 Quadrupole moment (field-independent basis, Debye-Ang):
   XX=            -26.8798   YY=            -62.2285   ZZ=            -22.4811
   XY=             -3.6554   XZ=              0.0000   YZ=              0.0000

 64\CCSD(T)=-218.6200231\RMSD=3.169e-09\PG=CS [SG(N4)]\\@
 Normal termination of Gaussian 16 at Tue Feb 13 20:28:56 2024.
