 Gaussian 16, Revision A.03,
 Gaussian 16:  ES64L-G16RevA.03 25-Dec-2016

 -----------------------------------------------
 #p ROCCSD(T,MaxCyc=200)/cc-pVTZ SCF(MaxCyc=200)
 -----------------------------------------------

 --------
 N2_N2_37
 --------
 Symbolic Z-matrix:
 Charge = -1 Multiplicity = 2

                         Standard orientation:
 ---------------------------------------------------------------------
 Center     Atomic      Atomic             Coordinates (Angstroms)
 Number     Number       Type             X           Y           Z
 ---------------------------------------------------------------------
      1          7           0        0.578060   -1.590560   -0.000000
      2          7           0       -0.192687   -0.819813   -0.000000
      3          7           0       -0.192687    0.660187    0.000000
      4          7           0       -0.192687    1.750186    0.000000
 ---------------------------------------------------------------------

 SCF Done:  E(ROHF) =  -217.646762783     A.U. after   17 cycles
 E2 =    -0.7786813928D+00 EUMP2 =    -0.21842544417582D+03
 CCSD(T)
 CCSD(T)= -0.21846485847D+03

 The electronic state is 2-A".
 Alpha  occ. eigenvalues --  -15.41625 -15.36859 -15.35556 -15.31301  -1.22051
 Alpha  occ. eigenvalues --   -1.17273  -0.75841  -0.45400  -0.45225  -0.41239
 Alpha  occ. eigenvalues --   -0.38097  -0.33685  -0.31227  -0.08638  -0.00091
 Alpha virt. eigenvalues --    0.41928   0.44558   0.51081   0.64272   0.68027
 Alpha virt. eigenvalues --    0.77037   0.77047   0.81241   0.84646   0.86154
 Alpha virt. eigenvalues --    0.89859   0.93628   0.97039   1.02925   1.04111

 Mulliken charges and spin densities:
               1          2
     1  N   -0.456236   0.073625
     2  N   -0.035281   0.028277
     3  N   -0.236978   0.371639
     4  N   -0.271505   0.526459
 Sum of Mulliken charges =  -1.00000   1.00000

 Dipole moment (field-independent basis, Debye):
    X=             -0.4538    Y=              0.3261    Z=             -0.0000  Tot=              0.5588
 Quadrupole moment (field-independent basis, Debye-Ang):
   XX=            -25.3528   YY=            -40.1710   ZZ=            -23.4333
   XY=              3.2173   XZ=             -0.0000   YZ=             -0.0000

 2296\CCSD=-218.4224205\CCSD(T)=-218.4648585\RMSD=7.468e-09\PG=CS [SG(N
 Normal termination of Gaussian 16 at Tue Feb 13 13:21:55 2024.
