 Gaussian 16, Revision A.03,
 Gaussian 16:  ES64L-G16RevA.03 25-Dec-2016

 -----------------------------------------------
 #p ROCCSD(T,MaxCyc=200)/cc-pVTZ SCF(MaxCyc=200)
 -----------------------------------------------

 ---------
 N2_N2_228
 ---------
 Symbolic Z-matrix:
 Charge = -1 Multiplicity = 2

                         Standard orientation:
 ---------------------------------------------------------------------
 Center     Atomic      Atomic             Coordinates (Angstroms)
 Number     Number       Type             X           Y           Z
 ---------------------------------------------------------------------
      1          7           0        0.000000    0.000000    3.110000
      2          7           0        0.000000    0.000000    2.020000
      3          7           0        0.000000    0.000000   -2.020000
      4          7           0        0.000000    0.000000   -3.110000
 ---------------------------------------------------------------------

 SCF Done:  E(ROHF) =  -217.820845645     A.U. after   11 cycles
 E2 =    -0.7697553770D+00 EUMP2 =    -0.21859060102236D+03
 CCSD(T)
 CCSD(T)= -0.21862152024D+03

 Unable to determine electronic state:  an orbital has unidentified symmetry.
 Alpha  occ. eigenvalues --  -15.41521 -15.41521 -15.41001 -15.41001  -1.23023
 Alpha  occ. eigenvalues --   -1.23015  -0.55342  -0.55045  -0.41886  -0.41597
 Alpha  occ. eigenvalues --   -0.39824  -0.39422  -0.37506  -0.37482   0.13146
 Alpha virt. eigenvalues --    0.24188   0.38566   0.39097   0.55006   0.65568
 Alpha virt. eigenvalues --    0.72219   0.75901   0.76198   0.76598   0.76851
 Alpha virt. eigenvalues --    0.86957   0.88962   0.90446   0.91572   0.93069

 Mulliken charges and spin densities:
               1          2
     1  N   -0.255551   0.242860
     2  N   -0.244449   0.257140
     3  N   -0.244449   0.257140
     4  N   -0.255551   0.242860
 Sum of Mulliken charges =  -1.00000   1.00000

 Dipole moment (field-independent basis, Debye):
    X=             -0.0000    Y=             -0.0000    Z=              0.0000  Tot=              0.0000
 Quadrupole moment (field-independent basis, Debye-Ang):
   XX=            -24.2921   YY=            -22.4941   ZZ=            -62.5371
   XY=              0.0000   XZ=              0.0000   YZ=             -0.0000

 456\PMP2-0=-218.590601\MP4SDQ=-218.5866309\CCSD=-218.5832719\CCSD(T)=-
 Normal termination of Gaussian 16 at Tue Feb 13 18:16:23 2024.
