 Gaussian 16, Revision A.03,
 Gaussian 16:  ES64L-G16RevA.03 25-Dec-2016

 -----------------------------------------------
 #p ROCCSD(T,MaxCyc=200)/cc-pVTZ SCF(MaxCyc=200)
 -----------------------------------------------

 ---------
 N2_N2_135
 ---------
 Symbolic Z-matrix:
 Charge = -1 Multiplicity = 2

                         Standard orientation:
 ---------------------------------------------------------------------
 Center     Atomic      Atomic             Coordinates (Angstroms)
 Number     Number       Type             X           Y           Z
 ---------------------------------------------------------------------
      1          7           0        0.000000    0.000000    2.490000
      2          7           0        0.000000    0.000000    1.400000
      3          7           0        0.000000    0.000000   -1.400000
      4          7           0        0.000000    0.000000   -2.490000
 ---------------------------------------------------------------------

 SCF Done:  E(ROHF) =  -217.826868862     A.U. after   11 cycles
 E2 =    -0.7682577799D+00 EUMP2 =    -0.21859512664151D+03
 CCSD(T)
 CCSD(T)= -0.21862785472D+03

 Unable to determine electronic state:  an orbital has unidentified symmetry.
 Alpha  occ. eigenvalues --  -15.40064 -15.40063 -15.39153 -15.39153  -1.21454
 Alpha  occ. eigenvalues --   -1.21361  -0.54818  -0.52247  -0.40404  -0.39504
 Alpha  occ. eigenvalues --   -0.39483  -0.36042  -0.35835  -0.35708   0.12043
 Alpha virt. eigenvalues --    0.29359   0.38881   0.42190   0.63916   0.66127
 Alpha virt. eigenvalues --    0.75587   0.75942   0.78046   0.79440   0.79879
 Alpha virt. eigenvalues --    0.89678   0.89851   0.90195   0.92485   1.01338

 Mulliken charges and spin densities:
               1          2
     1  N   -0.254291   0.231731
     2  N   -0.245709   0.268269
     3  N   -0.245709   0.268269
     4  N   -0.254291   0.231731
 Sum of Mulliken charges =  -1.00000   1.00000

 Dipole moment (field-independent basis, Debye):
    X=             -0.0000    Y=              0.0000    Z=              0.0000  Tot=              0.0000
 Quadrupole moment (field-independent basis, Debye-Ang):
   XX=            -24.4640   YY=            -22.5425   ZZ=            -49.4881
   XY=              0.0000   XZ=              0.0000   YZ=             -0.0000

 689\PMP2-0=-218.5951266\MP4SDQ=-218.5931524\CCSD=-218.5895547\CCSD(T)=
 Normal termination of Gaussian 16 at Tue Feb 13 15:53:51 2024.
