 Gaussian 16, Revision A.03,
 Gaussian 16:  ES64L-G16RevA.03 25-Dec-2016

 -----------------------------------------------
 #p ROCCSD(T,MaxCyc=200)/cc-pVTZ SCF(MaxCyc=200)
 -----------------------------------------------

 ---------
 N2_N2_223
 ---------
 Symbolic Z-matrix:
 Charge = -1 Multiplicity = 2

                         Standard orientation:
 ---------------------------------------------------------------------
 Center     Atomic      Atomic             Coordinates (Angstroms)
 Number     Number       Type             X           Y           Z
 ---------------------------------------------------------------------
      1          7           0        0.578060   -2.830560    0.000000
      2          7           0       -0.192687   -2.059813    0.000000
      3          7           0       -0.192687    1.900187    0.000000
      4          7           0       -0.192687    2.990186    0.000000
 ---------------------------------------------------------------------

 SCF Done:  E(ROHF) =  -217.821482074     A.U. after   18 cycles
 E2 =    -0.7697028190D+00 EUMP2 =    -0.21859118489337D+03
 CCSD(T)
 CCSD(T)= -0.21862213734D+03

 The electronic state is 2-A".
 Alpha  occ. eigenvalues --  -15.41632 -15.41171 -15.41097 -15.40656  -1.23097
 Alpha  occ. eigenvalues --   -1.22656  -0.55308  -0.54857  -0.41810  -0.41399
 Alpha  occ. eigenvalues --   -0.39782  -0.39279  -0.37566  -0.37095   0.13084
 Alpha virt. eigenvalues --    0.24483   0.38704   0.39078   0.57122   0.64222
 Alpha virt. eigenvalues --    0.72357   0.75915   0.75922   0.76834   0.77173
 Alpha virt. eigenvalues --    0.83149   0.88908   0.90100   0.90472   0.93353

 Mulliken charges and spin densities:
               1          2
     1  N   -0.265925   0.246940
     2  N   -0.239459   0.258599
     3  N   -0.238866   0.254605
     4  N   -0.255749   0.239857
 Sum of Mulliken charges =  -1.00000   1.00000

 Dipole moment (field-independent basis, Debye):
    X=             -0.0868    Y=              0.0839    Z=              0.0000  Tot=              0.1207
 Quadrupole moment (field-independent basis, Debye-Ang):
   XX=            -24.2789   YY=            -57.7779   ZZ=            -24.2919
   XY=              4.0850   XZ=             -0.0000   YZ=             -0.0000

 73179\CCSD=-218.5841391\CCSD(T)=-218.6221373\RMSD=1.166e-09\PG=CS [SG(
 Normal termination of Gaussian 16 at Tue Feb 13 18:08:13 2024.
