 Gaussian 16, Revision A.03,
 Gaussian 16:  ES64L-G16RevA.03 25-Dec-2016

 -----------------------------------------------
 #p ROCCSD(T,MaxCyc=200)/cc-pVTZ SCF(MaxCyc=200)
 -----------------------------------------------

 ---------
 N2_N2_302
 ---------
 Symbolic Z-matrix:
 Charge = -1 Multiplicity = 2

                         Standard orientation:
 ---------------------------------------------------------------------
 Center     Atomic      Atomic             Coordinates (Angstroms)
 Number     Number       Type             X           Y           Z
 ---------------------------------------------------------------------
      1          7           0       -0.817500   -2.772500    0.000000
      2          7           0        0.272500   -2.772500    0.000000
      3          7           0        0.272500    2.227500    0.000000
      4          7           0        0.272500    3.317500    0.000000
 ---------------------------------------------------------------------

 SCF Done:  E(ROHF) =  -217.820496215     A.U. after   14 cycles
 E2 =    -0.7700225328D+00 EUMP2 =    -0.21859051874751D+03
 CCSD(T)
 CCSD(T)= -0.21861904024D+03

 The electronic state is 2-A'.
 Alpha  occ. eigenvalues --  -15.42279 -15.41832 -15.41719 -15.41374  -1.23786
 Alpha  occ. eigenvalues --   -1.23278  -0.55986  -0.55645  -0.42473  -0.42081
 Alpha  occ. eigenvalues --   -0.40444  -0.40074  -0.38257  -0.37785   0.13183
 Alpha virt. eigenvalues --    0.22936   0.38068   0.38405   0.60137   0.60413
 Alpha virt. eigenvalues --    0.74360   0.75204   0.75577   0.75831   0.76230
 Alpha virt. eigenvalues --    0.77239   0.88376   0.88946   0.90786   0.91584

 Mulliken charges and spin densities:
               1          2
     1  N   -0.256159   0.252748
     2  N   -0.250617   0.254078
     3  N   -0.233862   0.251855
     4  N   -0.259362   0.241320
 Sum of Mulliken charges =  -1.00000   1.00000

 Dipole moment (field-independent basis, Debye):
    X=              0.0287    Y=              0.0894    Z=              0.0000  Tot=              0.0939
 Quadrupole moment (field-independent basis, Debye-Ang):
   XX=            -26.8691   YY=            -64.8143   ZZ=            -22.4790
   XY=             -3.7762   XZ=              0.0000   YZ=              0.0000

 CCSD(T)=-218.6190402\RMSD=9.575e-09\PG=CS [SG(N4)]\\@
 Normal termination of Gaussian 16 at Tue Feb 13 21:17:23 2024.
