 Gaussian 16, Revision A.03,
 Gaussian 16:  ES64L-G16RevA.03 25-Dec-2016

 -----------------------------------------------
 #p ROCCSD(T,MaxCyc=200)/cc-pVTZ SCF(MaxCyc=200)
 -----------------------------------------------

 ---------
 N2_N2_220
 ---------
 Symbolic Z-matrix:
 Charge = -1 Multiplicity = 2

                         Standard orientation:
 ---------------------------------------------------------------------
 Center     Atomic      Atomic             Coordinates (Angstroms)
 Number     Number       Type             X           Y           Z
 ---------------------------------------------------------------------
      1          7           0        0.578060   -2.810560    0.000000
      2          7           0       -0.192687   -2.039814   -0.000000
      3          7           0       -0.192687    1.880187   -0.000000
      4          7           0       -0.192687    2.970186   -0.000000
 ---------------------------------------------------------------------

 SCF Done:  E(ROHF) =  -217.821621637     A.U. after   17 cycles
 E2 =    -0.7696746383D+00 EUMP2 =    -0.21859129627480D+03
 CCSD(T)
 CCSD(T)= -0.21862231176D+03

 The electronic state is 2-A".
 Alpha  occ. eigenvalues --  -15.41604 -15.41128 -15.41061 -15.40604  -1.23064
 Alpha  occ. eigenvalues --   -1.22609  -0.55275  -0.54802  -0.41772  -0.41349
 Alpha  occ. eigenvalues --   -0.39753  -0.39222  -0.37532  -0.37045   0.13069
 Alpha virt. eigenvalues --    0.24594   0.38734   0.39132   0.57215   0.64265
 Alpha virt. eigenvalues --    0.72311   0.75899   0.75926   0.76902   0.77259
 Alpha virt. eigenvalues --    0.83398   0.88935   0.90206   0.90433   0.93509

 Mulliken charges and spin densities:
               1          2
     1  N   -0.265911   0.246891
     2  N   -0.239677   0.258852
     3  N   -0.239211   0.254682
     4  N   -0.255200   0.239576
 Sum of Mulliken charges =  -1.00000   1.00000

 Dipole moment (field-independent basis, Debye):
    X=             -0.0882    Y=              0.0873    Z=             -0.0000  Tot=              0.1241
 Quadrupole moment (field-independent basis, Debye-Ang):
   XX=            -24.2810   YY=            -57.3181   ZZ=            -24.2951
   XY=              4.0688   XZ=             -0.0000   YZ=              0.0000

 4784\CCSD=-218.5842811\CCSD(T)=-218.6223118\RMSD=5.133e-09\PG=CS [SG(N
 Normal termination of Gaussian 16 at Tue Feb 13 18:03:38 2024.
