 Gaussian 16, Revision A.03,
 Gaussian 16:  ES64L-G16RevA.03 25-Dec-2016

 -----------------------------------------------
 #p ROCCSD(T,MaxCyc=200)/cc-pVTZ SCF(MaxCyc=200)
 -----------------------------------------------

 --------
 N2_N2_64
 --------
 Symbolic Z-matrix:
 Charge = -1 Multiplicity = 2

                         Standard orientation:
 ---------------------------------------------------------------------
 Center     Atomic      Atomic             Coordinates (Angstroms)
 Number     Number       Type             X           Y           Z
 ---------------------------------------------------------------------
      1          7           0        0.578060   -1.770560    0.000000
      2          7           0       -0.192687   -0.999813    0.000000
      3          7           0       -0.192687    0.840186   -0.000000
      4          7           0       -0.192687    1.930187   -0.000000
 ---------------------------------------------------------------------

 SCF Done:  E(ROHF) =  -217.763781429     A.U. after   20 cycles
 E2 =    -0.7723987812D+00 EUMP2 =    -0.21853618021041D+03
 CCSD(T)
 CCSD(T)= -0.21857340575D+03

 The electronic state is 2-A".
 Alpha  occ. eigenvalues --  -15.43974 -15.40433 -15.30443 -15.29851  -1.23634
 Alpha  occ. eigenvalues --   -1.14029  -0.62403  -0.48067  -0.40325  -0.39900
 Alpha  occ. eigenvalues --   -0.38956  -0.35635  -0.28674  -0.21652   0.06485
 Alpha virt. eigenvalues --    0.38600   0.41204   0.46494   0.63712   0.67555
 Alpha virt. eigenvalues --    0.76326   0.76879   0.80048   0.84424   0.86024
 Alpha virt. eigenvalues --    0.90633   0.93437   0.95332   1.04095   1.04804

 Mulliken charges and spin densities:
               1          2
     1  N   -0.224998   0.068445
     2  N   -0.005106   0.074208
     3  N   -0.440772   0.408635
     4  N   -0.329124   0.448712
 Sum of Mulliken charges =  -1.00000   1.00000

 Dipole moment (field-independent basis, Debye):
    X=              0.0972    Y=             -2.9714    Z=              0.0000  Tot=              2.9730
 Quadrupole moment (field-independent basis, Debye-Ang):
   XX=            -24.2636   YY=            -40.4905   ZZ=            -24.1295
   XY=              2.9981   XZ=             -0.0000   YZ=              0.0000

 6737\CCSD=-218.5330688\CCSD(T)=-218.5734057\RMSD=8.284e-09\PG=CS [SG(N
 Normal termination of Gaussian 16 at Tue Feb 13 14:09:33 2024.
