 Gaussian 16, Revision A.03,
 Gaussian 16:  ES64L-G16RevA.03 25-Dec-2016

 -----------------------------------------------
 #p ROCCSD(T,MaxCyc=200)/cc-pVTZ SCF(MaxCyc=200)
 -----------------------------------------------

 ---------
 N2_N2_217
 ---------
 Symbolic Z-matrix:
 Charge = -1 Multiplicity = 2

                         Standard orientation:
 ---------------------------------------------------------------------
 Center     Atomic      Atomic             Coordinates (Angstroms)
 Number     Number       Type             X           Y           Z
 ---------------------------------------------------------------------
      1          7           0        0.578060   -2.790560    0.000000
      2          7           0       -0.192687   -2.019813    0.000000
      3          7           0       -0.192687    1.860186   -0.000000
      4          7           0       -0.192687    2.950187   -0.000000
 ---------------------------------------------------------------------

 SCF Done:  E(ROHF) =  -217.821769175     A.U. after   16 cycles
 E2 =    -0.7696459186D+00 EUMP2 =    -0.21859141509318D+03
 CCSD(T)
 CCSD(T)= -0.21862249273D+03

 The electronic state is 2-A".
 Alpha  occ. eigenvalues --  -15.41576 -15.41085 -15.41024 -15.40552  -1.23030
 Alpha  occ. eigenvalues --   -1.22560  -0.55243  -0.54745  -0.41734  -0.41297
 Alpha  occ. eigenvalues --   -0.39724  -0.39162  -0.37497  -0.36994   0.13054
 Alpha virt. eigenvalues --    0.24708   0.38764   0.39188   0.57328   0.64304
 Alpha virt. eigenvalues --    0.72269   0.75881   0.75928   0.76973   0.77348
 Alpha virt. eigenvalues --    0.83635   0.88961   0.90315   0.90391   0.93672

 Mulliken charges and spin densities:
               1          2
     1  N   -0.265897   0.246843
     2  N   -0.239917   0.259122
     3  N   -0.239563   0.254759
     4  N   -0.254624   0.239276
 Sum of Mulliken charges =  -1.00000   1.00000

 Dipole moment (field-independent basis, Debye):
    X=             -0.0898    Y=              0.0910    Z=             -0.0000  Tot=              0.1278
 Quadrupole moment (field-independent basis, Debye-Ang):
   XX=            -24.2832   YY=            -56.8619   ZZ=            -24.2984
   XY=              4.0525   XZ=             -0.0000   YZ=              0.0000

 76475\CCSD=-218.5844338\CCSD(T)=-218.6224927\RMSD=2.923e-09\PG=CS [SG(
 Normal termination of Gaussian 16 at Tue Feb 13 17:57:46 2024.
