 Gaussian 16, Revision A.03,
 Gaussian 16:  ES64L-G16RevA.03 25-Dec-2016

 -----------------------------------------------
 #p ROCCSD(T,MaxCyc=200)/cc-pVTZ SCF(MaxCyc=200)
 -----------------------------------------------

 -------
 N2_N2_0
 -------
 Symbolic Z-matrix:
 Charge = -1 Multiplicity = 2

                         Standard orientation:
 ---------------------------------------------------------------------
 Center     Atomic      Atomic             Coordinates (Angstroms)
 Number     Number       Type             X           Y           Z
 ---------------------------------------------------------------------
      1          7           0        0.000000    0.000000    1.590000
      2          7           0        0.000000    0.000000    0.500000
      3          7           0        0.000000    0.000000   -0.500000
      4          7           0        0.000000    0.000000   -1.590000
 ---------------------------------------------------------------------

 SCF Done:  E(ROHF) =  -217.503621276     A.U. after   13 cycles
 E2 =    -0.7871239406D+00 EUMP2 =    -0.21829074521639D+03
 CCSD(T)
 CCSD(T)= -0.21831027741D+03

 Unable to determine electronic state:  an orbital has unidentified symmetry.
 Alpha  occ. eigenvalues --  -15.46287 -15.45676 -15.28903 -15.28901  -1.40653
 Alpha  occ. eigenvalues --   -1.16845  -1.05422  -0.61437  -0.59623  -0.38582
 Alpha  occ. eigenvalues --   -0.37579  -0.31306  -0.29324  -0.03038  -0.01941
 Alpha virt. eigenvalues --    0.53985   0.56605   0.57944   0.65812   0.67638
 Alpha virt. eigenvalues --    0.73687   0.74290   0.74653   0.86488   0.87990
 Alpha virt. eigenvalues --    0.92121   0.93995   0.95245   1.06223   1.12546

 Mulliken charges and spin densities:
               1          2
     1  N   -0.340387   0.424058
     2  N   -0.159613   0.075942
     3  N   -0.159613   0.075942
     4  N   -0.340387   0.424058
 Sum of Mulliken charges =  -1.00000   1.00000

 Dipole moment (field-independent basis, Debye):
    X=             -0.0000    Y=             -0.0000    Z=             -0.0000  Tot=              0.0000
 Quadrupole moment (field-independent basis, Debye-Ang):
   XX=            -22.2164   YY=            -23.7075   ZZ=            -46.3330
   XY=             -0.0000   XZ=              0.0000   YZ=             -0.0000

 \PMP2-0=-218.2907452\MP4SDQ=-218.2757253\CCSD=-218.2718407\CCSD(T)=-21
 Normal termination of Gaussian 16 at Tue Feb 13 12:18:15 2024.
