 Gaussian 16, Revision A.03,
 Gaussian 16:  ES64L-G16RevA.03 25-Dec-2016

 -----------------------------------------------
 #p ROCCSD(T,MaxCyc=200)/cc-pVTZ SCF(MaxCyc=200)
 -----------------------------------------------

 -------
 N2_N2_6
 -------
 Symbolic Z-matrix:
 Charge = -1 Multiplicity = 2

                         Standard orientation:
 ---------------------------------------------------------------------
 Center     Atomic      Atomic             Coordinates (Angstroms)
 Number     Number       Type             X           Y           Z
 ---------------------------------------------------------------------
      1          7           0        0.000000    0.000000    1.630000
      2          7           0        0.000000    0.000000    0.540000
      3          7           0        0.000000    0.000000   -0.540000
      4          7           0        0.000000    0.000000   -1.630000
 ---------------------------------------------------------------------

 SCF Done:  E(ROHF) =  -217.559397342     A.U. after   12 cycles
 E2 =    -0.8022248517D+00 EUMP2 =    -0.21836162219415D+03
 CCSD(T)
 CCSD(T)= -0.21837901139D+03

 Unable to determine electronic state:  an orbital has unidentified symmetry.
 Alpha  occ. eigenvalues --  -15.46999 -15.46662 -15.29943 -15.29941  -1.35491
 Alpha  occ. eigenvalues --   -1.17455  -1.02442  -0.57782  -0.55895  -0.39389
 Alpha  occ. eigenvalues --   -0.37949  -0.32545  -0.30593  -0.01873  -0.00867
 Alpha virt. eigenvalues --    0.50478   0.53161   0.58281   0.65822   0.69123
 Alpha virt. eigenvalues --    0.73989   0.74223   0.75248   0.86014   0.86053
 Alpha virt. eigenvalues --    0.87446   0.94336   0.95558   1.05724   1.11599

 Mulliken charges and spin densities:
               1          2
     1  N   -0.339709   0.409956
     2  N   -0.160291   0.090044
     3  N   -0.160291   0.090044
     4  N   -0.339709   0.409956
 Sum of Mulliken charges =  -1.00000   1.00000

 Dipole moment (field-independent basis, Debye):
    X=             -0.0000    Y=              0.0000    Z=              0.0000  Tot=              0.0000
 Quadrupole moment (field-independent basis, Debye-Ang):
   XX=            -23.9153   YY=            -22.4043   ZZ=            -46.4019
   XY=             -0.0000   XZ=              0.0000   YZ=             -0.0000

 73\PMP2-0=-218.3616222\MP4SDQ=-218.3422457\CCSD=-218.3377948\CCSD(T)=-
 Normal termination of Gaussian 16 at Tue Feb 13 12:29:16 2024.
