 Gaussian 16, Revision A.03,
 Gaussian 16:  ES64L-G16RevA.03 25-Dec-2016

 -----------------------------------------------
 #p ROCCSD(T,MaxCyc=200)/cc-pVTZ SCF(MaxCyc=200)
 -----------------------------------------------

 ---------
 N2_N2_163
 ---------
 Symbolic Z-matrix:
 Charge = -1 Multiplicity = 2

                         Standard orientation:
 ---------------------------------------------------------------------
 Center     Atomic      Atomic             Coordinates (Angstroms)
 Number     Number       Type             X           Y           Z
 ---------------------------------------------------------------------
      1          7           0        0.578060   -2.430560    0.000000
      2          7           0       -0.192687   -1.659813   -0.000000
      3          7           0       -0.192687    1.500186   -0.000000
      4          7           0       -0.192687    2.590187   -0.000000
 ---------------------------------------------------------------------

 SCF Done:  E(ROHF) =  -217.825725514     A.U. after   17 cycles
 E2 =    -0.7690068796D+00 EUMP2 =    -0.21859473239398D+03
 CCSD(T)
 CCSD(T)= -0.21862698126D+03

 The electronic state is 2-A".
 Alpha  occ. eigenvalues --  -15.41093 -15.40319 -15.40099 -15.39290  -1.22400
 Alpha  occ. eigenvalues --   -1.21442  -0.54777  -0.53358  -0.40985  -0.40120
 Alpha  occ. eigenvalues --   -0.39386  -0.37681  -0.36850  -0.35730   0.12553
 Alpha virt. eigenvalues --    0.27343   0.39329   0.40690   0.62042   0.64870
 Alpha virt. eigenvalues --    0.73533   0.75109   0.75616   0.78618   0.79555
 Alpha virt. eigenvalues --    0.85959   0.89480   0.89883   0.93029   0.97264

 Mulliken charges and spin densities:
               1          2
     1  N   -0.267741   0.246276
     2  N   -0.246321   0.267612
     3  N   -0.240933   0.256163
     4  N   -0.245005   0.229949
 Sum of Mulliken charges =  -1.00000   1.00000

 Dipole moment (field-independent basis, Debye):
    X=             -0.1277    Y=              0.2206    Z=             -0.0000  Tot=              0.2549
 Quadrupole moment (field-independent basis, Debye-Ang):
   XX=            -24.3395   YY=            -49.3029   ZZ=            -24.3803
   XY=              3.7648   XZ=             -0.0000   YZ=              0.0000

 20511\CCSD=-218.5886774\CCSD(T)=-218.6269813\RMSD=6.288e-09\PG=CS [SG(
 Normal termination of Gaussian 16 at Tue Feb 13 16:37:40 2024.
