 Gaussian 16, Revision A.03,
 Gaussian 16:  ES64L-G16RevA.03 25-Dec-2016

 -----------------------------------------------
 #p ROCCSD(T,MaxCyc=200)/cc-pVTZ SCF(MaxCyc=200)
 -----------------------------------------------

 --------
 N2_N2_16
 --------
 Symbolic Z-matrix:
 Charge = -1 Multiplicity = 2

                         Standard orientation:
 ---------------------------------------------------------------------
 Center     Atomic      Atomic             Coordinates (Angstroms)
 Number     Number       Type             X           Y           Z
 ---------------------------------------------------------------------
      1          7           0        0.578060   -1.450560    0.000000
      2          7           0       -0.192687   -0.679814    0.000000
      3          7           0       -0.192687    0.520186   -0.000000
      4          7           0       -0.192687    1.610187   -0.000000
 ---------------------------------------------------------------------

 SCF Done:  E(ROHF) =  -217.584578046     A.U. after   18 cycles
 E2 =    -0.7757440820D+00 EUMP2 =    -0.21836032212788D+03
 CCSD(T)
 CCSD(T)= -0.21840283614D+03

 The electronic state is 2-A".
 Alpha  occ. eigenvalues --  -15.45525 -15.41216 -15.38167 -15.25484  -1.30608
 Alpha  occ. eigenvalues --   -1.17495  -0.91714  -0.53896  -0.49823  -0.45336
 Alpha  occ. eigenvalues --   -0.35619  -0.32817  -0.29658  -0.02667  -0.02016
 Alpha virt. eigenvalues --    0.40655   0.48307   0.60620   0.63061   0.72783
 Alpha virt. eigenvalues --    0.75081   0.76476   0.78468   0.85176   0.87130
 Alpha virt. eigenvalues --    0.93091   0.95605   0.96272   0.99347   1.01285

 Mulliken charges and spin densities:
               1          2
     1  N   -0.757367   0.166047
     2  N    0.071387   0.029002
     3  N    0.047032   0.261810
     4  N   -0.361053   0.543142
 Sum of Mulliken charges =  -1.00000   1.00000

 Dipole moment (field-independent basis, Debye):
    X=             -1.2973    Y=              2.0362    Z=             -0.0000  Tot=              2.4143
 Quadrupole moment (field-independent basis, Debye-Ang):
   XX=            -26.1972   YY=            -40.9843   ZZ=            -22.6993
   XY=              3.9736   XZ=             -0.0000   YZ=              0.0000

 44\CCSD=-218.3604663\CCSD(T)=-218.4028361\RMSD=3.547e-09\PG=CS [SG(N4)
 Normal termination of Gaussian 16 at Tue Feb 13 12:46:56 2024.
