 Gaussian 16, Revision A.03,
 Gaussian 16:  ES64L-G16RevA.03 25-Dec-2016

 -----------------------------------------------
 #p ROCCSD(T,MaxCyc=200)/cc-pVTZ SCF(MaxCyc=200)
 -----------------------------------------------

 ---------
 N2_N2_143
 ---------
 Symbolic Z-matrix:
 Charge = -1 Multiplicity = 2

                         Standard orientation:
 ---------------------------------------------------------------------
 Center     Atomic      Atomic             Coordinates (Angstroms)
 Number     Number       Type             X           Y           Z
 ---------------------------------------------------------------------
      1          7           0       -0.817500   -1.712500    0.000000
      2          7           0        0.272500   -1.712500    0.000000
      3          7           0        0.272500    1.167500    0.000000
      4          7           0        0.272500    2.257500    0.000000
 ---------------------------------------------------------------------

 SCF Done:  E(ROHF) =  -217.833050072     A.U. after   17 cycles
 E2 =    -0.7687136529D+00 EUMP2 =    -0.21860176372526D+03
 CCSD(T)
 CCSD(T)= -0.21863516563D+03

 The electronic state is 2-A'.
 Alpha  occ. eigenvalues --  -15.41235 -15.40082 -15.38247 -15.37860  -1.22241
 Alpha  occ. eigenvalues --   -1.19754  -0.54276  -0.52332  -0.40476  -0.40277
 Alpha  occ. eigenvalues --   -0.37638  -0.36691  -0.35626  -0.34343   0.11466
 Alpha virt. eigenvalues --    0.30796   0.39755   0.41698   0.62106   0.64918
 Alpha virt. eigenvalues --    0.75605   0.75797   0.76892   0.79385   0.80969
 Alpha virt. eigenvalues --    0.82560   0.89041   0.91181   0.95604   0.97860

 Mulliken charges and spin densities:
               1          2
     1  N   -0.299096   0.265650
     2  N   -0.244088   0.278223
     3  N   -0.213656   0.249149
     4  N   -0.243160   0.206979
 Sum of Mulliken charges =  -1.00000   1.00000

 Dipole moment (field-independent basis, Debye):
    X=              0.2033    Y=              0.5272    Z=              0.0000  Tot=              0.5650
 Quadrupole moment (field-independent basis, Debye-Ang):
   XX=            -27.1881   YY=            -42.2301   ZZ=            -22.5272
   XY=             -2.4498   XZ=              0.0000   YZ=              0.0000

 39\CCSD(T)=-218.6351656\RMSD=8.543e-09\PG=CS [SG(N4)]\\@
 Normal termination of Gaussian 16 at Tue Feb 13 16:07:44 2024.
