 Gaussian 16, Revision A.03,
 Gaussian 16:  ES64L-G16RevA.03 25-Dec-2016

 -----------------------------------------------
 #p ROCCSD(T,MaxCyc=200)/cc-pVTZ SCF(MaxCyc=200)
 -----------------------------------------------

 ---------
 N2_N2_186
 ---------
 Symbolic Z-matrix:
 Charge = -1 Multiplicity = 2

                         Standard orientation:
 ---------------------------------------------------------------------
 Center     Atomic      Atomic             Coordinates (Angstroms)
 Number     Number       Type             X           Y           Z
 ---------------------------------------------------------------------
      1          7           0        0.000000    0.000000    2.830000
      2          7           0        0.000000    0.000000    1.740000
      3          7           0        0.000000    0.000000   -1.740000
      4          7           0        0.000000    0.000000   -2.830000
 ---------------------------------------------------------------------

 SCF Done:  E(ROHF) =  -217.823320727     A.U. after   11 cycles
 E2 =    -0.7691573533D+00 EUMP2 =    -0.21859247808007D+03
 CCSD(T)
 CCSD(T)= -0.21862417237D+03

 Unable to determine electronic state:  an orbital has unidentified symmetry.
 Alpha  occ. eigenvalues --  -15.40996 -15.40996 -15.40338 -15.40338  -1.22429
 Alpha  occ. eigenvalues --   -1.22406  -0.54904  -0.54144  -0.41296  -0.40845
 Alpha  occ. eigenvalues --   -0.39485  -0.38382  -0.36927  -0.36848   0.12866
 Alpha virt. eigenvalues --    0.25985   0.38792   0.40144   0.59182   0.65126
 Alpha virt. eigenvalues --    0.71951   0.75854   0.76169   0.77652   0.77935
 Alpha virt. eigenvalues --    0.88739   0.89460   0.89726   0.92375   0.96000

 Mulliken charges and spin densities:
               1          2
     1  N   -0.249000   0.239432
     2  N   -0.251000   0.260568
     3  N   -0.251000   0.260568
     4  N   -0.249000   0.239432
 Sum of Mulliken charges =  -1.00000   1.00000

 Dipole moment (field-independent basis, Debye):
    X=             -0.0000    Y=              0.0000    Z=             -0.0000  Tot=              0.0000
 Quadrupole moment (field-independent basis, Debye-Ang):
   XX=            -22.5100   YY=            -24.3528   ZZ=            -56.1640
   XY=              0.0000   XZ=              0.0000   YZ=             -0.0000

 Normal termination of Gaussian 16 at Tue Feb 13 17:11:12 2024.
