 Gaussian 16, Revision A.03,
 Gaussian 16:  ES64L-G16RevA.03 25-Dec-2016

 -----------------------------------------------
 #p ROCCSD(T,MaxCyc=200)/cc-pVTZ SCF(MaxCyc=200)
 -----------------------------------------------

 ---------
 N2_N2_106
 ---------
 Symbolic Z-matrix:
 Charge = -1 Multiplicity = 2

                         Standard orientation:
 ---------------------------------------------------------------------
 Center     Atomic      Atomic             Coordinates (Angstroms)
 Number     Number       Type             X           Y           Z
 ---------------------------------------------------------------------
      1          7           0        0.578060   -2.050560   -0.000000
      2          7           0       -0.192687   -1.279813   -0.000000
      3          7           0       -0.192687    1.120186    0.000000
      4          7           0       -0.192687    2.210187    0.000000
 ---------------------------------------------------------------------

 SCF Done:  E(ROHF) =  -217.822877500     A.U. after   18 cycles
 E2 =    -0.7696932557D+00 EUMP2 =    -0.21859257075559D+03
 CCSD(T)
 CCSD(T)= -0.21862641226D+03

 The electronic state is 2-A".
 Alpha  occ. eigenvalues --  -15.41048 -15.40033 -15.37267 -15.35970  -1.22227
 Alpha  occ. eigenvalues --   -1.18753  -0.55916  -0.50331  -0.40403  -0.40113
 Alpha  occ. eigenvalues --   -0.37774  -0.36731  -0.34414  -0.31536   0.11121
 Alpha virt. eigenvalues --    0.31942   0.39631   0.43896   0.63963   0.66002
 Alpha virt. eigenvalues --    0.74656   0.75652   0.81158   0.81990   0.85020
 Alpha virt. eigenvalues --    0.87470   0.89549   0.92149   1.02106   1.02406

 Mulliken charges and spin densities:
               1          2
     1  N   -0.300532   0.269705
     2  N   -0.265633   0.296814
     3  N   -0.196700   0.237370
     4  N   -0.237135   0.196111
 Sum of Mulliken charges =  -1.00000   1.00000

 Dipole moment (field-independent basis, Debye):
    X=             -0.2747    Y=              0.9837    Z=              0.0000  Tot=              1.0214
 Quadrupole moment (field-independent basis, Debye-Ang):
   XX=            -24.5116   YY=            -42.9192   ZZ=            -24.4573
   XY=              3.5590   XZ=              0.0000   YZ=             -0.0000

 09238\CCSD=-218.5877404\CCSD(T)=-218.6264123\RMSD=7.282e-09\PG=CS [SG(
 Normal termination of Gaussian 16 at Tue Feb 13 15:09:25 2024.
