 Gaussian 16, Revision A.03,
 Gaussian 16:  ES64L-G16RevA.03 25-Dec-2016

 -----------------------------------------------
 #p ROCCSD(T,MaxCyc=200)/cc-pVTZ SCF(MaxCyc=200)
 -----------------------------------------------

 ---------
 N2_N2_182
 ---------
 Symbolic Z-matrix:
 Charge = -1 Multiplicity = 2

                         Standard orientation:
 ---------------------------------------------------------------------
 Center     Atomic      Atomic             Coordinates (Angstroms)
 Number     Number       Type             X           Y           Z
 ---------------------------------------------------------------------
      1          7           0       -0.817500   -1.972500    0.000000
      2          7           0        0.272500   -1.972500    0.000000
      3          7           0        0.272500    1.427500    0.000000
      4          7           0        0.272500    2.517500    0.000000
 ---------------------------------------------------------------------

 SCF Done:  E(ROHF) =  -217.828845783     A.U. after   17 cycles
 E2 =    -0.7687239756D+00 EUMP2 =    -0.21859756975898D+03
 CCSD(T)
 CCSD(T)= -0.21862999127D+03

 The electronic state is 2-A'.
 Alpha  occ. eigenvalues --  -15.41349 -15.40483 -15.39770 -15.39421  -1.22547
 Alpha  occ. eigenvalues --   -1.21225  -0.54545  -0.53656  -0.40914  -0.40373
 Alpha  occ. eigenvalues --   -0.38883  -0.37754  -0.36998  -0.35779   0.12311
 Alpha virt. eigenvalues --    0.27866   0.39412   0.40371   0.60626   0.62888
 Alpha virt. eigenvalues --    0.71662   0.75995   0.76088   0.77598   0.79087
 Alpha virt. eigenvalues --    0.83670   0.88700   0.89625   0.94722   0.96405

 Mulliken charges and spin densities:
               1          2
     1  N   -0.276602   0.257471
     2  N   -0.243077   0.262809
     3  N   -0.233083   0.254891
     4  N   -0.247238   0.224828
 Sum of Mulliken charges =  -1.00000   1.00000

 Dipole moment (field-independent basis, Debye):
    X=              0.0976    Y=              0.2263    Z=              0.0000  Tot=              0.2464
 Quadrupole moment (field-independent basis, Debye-Ang):
   XX=            -27.0683   YY=            -46.6769   ZZ=            -22.5111
   XY=             -2.7960   XZ=              0.0000   YZ=              0.0000

 86\CCSD(T)=-218.6299913\RMSD=2.570e-09\PG=CS [SG(N4)]\\@
 Normal termination of Gaussian 16 at Tue Feb 13 17:05:40 2024.
