 Gaussian 16, Revision A.03,
 Gaussian 16:  ES64L-G16RevA.03 25-Dec-2016

 -----------------------------------------------
 #p ROCCSD(T,MaxCyc=200)/cc-pVTZ SCF(MaxCyc=200)
 -----------------------------------------------

 --------
 N2_N2_25
 --------
 Symbolic Z-matrix:
 Charge = -1 Multiplicity = 2

                         Standard orientation:
 ---------------------------------------------------------------------
 Center     Atomic      Atomic             Coordinates (Angstroms)
 Number     Number       Type             X           Y           Z
 ---------------------------------------------------------------------
      1          7           0        0.578060   -1.510560    0.000000
      2          7           0       -0.192687   -0.739813    0.000000
      3          7           0       -0.192687    0.580187   -0.000000
      4          7           0       -0.192687    1.670186   -0.000000
 ---------------------------------------------------------------------

 SCF Done:  E(ROHF) =  -217.607740979     A.U. after   18 cycles
 E2 =    -0.7706912941D+00 EUMP2 =    -0.21837843227347D+03
 CCSD(T)
 CCSD(T)= -0.21842248590D+03

 The electronic state is 2-A".
 Alpha  occ. eigenvalues --  -15.42933 -15.40978 -15.38422 -15.26963  -1.26496
 Alpha  occ. eigenvalues --   -1.16962  -0.84924  -0.50570  -0.46734  -0.44759
 Alpha  occ. eigenvalues --   -0.36448  -0.32877  -0.30623  -0.03643  -0.02743
 Alpha virt. eigenvalues --    0.40447   0.47104   0.57277   0.62928   0.70915
 Alpha virt. eigenvalues --    0.75713   0.76441   0.80461   0.84995   0.85332
 Alpha virt. eigenvalues --    0.91657   0.94063   0.96817   1.01323   1.02065

 Mulliken charges and spin densities:
               1          2
     1  N   -0.639909   0.101687
     2  N   -0.016705   0.020688
     3  N   -0.049181   0.322829
     4  N   -0.294205   0.554796
 Sum of Mulliken charges =  -1.00000   1.00000

 Dipole moment (field-independent basis, Debye):
    X=             -0.9242    Y=              1.8615    Z=             -0.0000  Tot=              2.0783
 Quadrupole moment (field-independent basis, Debye-Ang):
   XX=            -26.0271   YY=            -40.6711   ZZ=            -22.9707
   XY=              3.5920   XZ=             -0.0000   YZ=              0.0000

 12\CCSD=-218.3807064\CCSD(T)=-218.4224859\RMSD=3.625e-09\PG=CS [SG(N4)
 Normal termination of Gaussian 16 at Tue Feb 13 12:59:39 2024.
