 Gaussian 16, Revision A.03,
 Gaussian 16:  ES64L-G16RevA.03 25-Dec-2016

 -----------------------------------------------
 #p ROCCSD(T,MaxCyc=200)/cc-pVTZ SCF(MaxCyc=200)
 -----------------------------------------------

 ---------
 N2_N2_110
 ---------
 Symbolic Z-matrix:
 Charge = -1 Multiplicity = 2

                         Standard orientation:
 ---------------------------------------------------------------------
 Center     Atomic      Atomic             Coordinates (Angstroms)
 Number     Number       Type             X           Y           Z
 ---------------------------------------------------------------------
      1          7           0       -0.817500   -1.492500    0.000000
      2          7           0        0.272500   -1.492500    0.000000
      3          7           0        0.272500    0.947500    0.000000
      4          7           0        0.272500    2.037500    0.000000
 ---------------------------------------------------------------------

 SCF Done:  E(ROHF) =  -217.827638574     A.U. after   23 cycles
 E2 =    -0.7697549392D+00 EUMP2 =    -0.21859739351299D+03
 CCSD(T)
 CCSD(T)= -0.21863218757D+03

 The electronic state is 2-A'.
 Alpha  occ. eigenvalues --  -15.41714 -15.40428 -15.35365 -15.34923  -1.22616
 Alpha  occ. eigenvalues --   -1.17347  -0.55067  -0.50374  -0.41697  -0.40004
 Alpha  occ. eigenvalues --   -0.37083  -0.35474  -0.32046  -0.31952   0.10301
 Alpha virt. eigenvalues --    0.34057   0.39567   0.43725   0.63057   0.64374
 Alpha virt. eigenvalues --    0.75671   0.77568   0.79285   0.81343   0.83013
 Alpha virt. eigenvalues --    0.88719   0.89176   0.95101   0.96782   0.99203

 Mulliken charges and spin densities:
               1          2
     1  N   -0.347037   0.288760
     2  N   -0.263483   0.325247
     3  N   -0.159971   0.216315
     4  N   -0.229508   0.169678
 Sum of Mulliken charges =  -1.00000   1.00000

 Dipole moment (field-independent basis, Debye):
    X=              0.4392    Y=              1.3241    Z=              0.0000  Tot=              1.3950
 Quadrupole moment (field-independent basis, Debye-Ang):
   XX=            -27.3242   YY=            -39.2403   ZZ=            -22.5356
   XY=             -2.1987   XZ=              0.0000   YZ=              0.0000

 951\CCSD(T)=-218.6321876\RMSD=6.468e-09\PG=CS [SG(N4)]\\@
 Normal termination of Gaussian 16 at Tue Feb 13 15:16:23 2024.
