 Gaussian 16, Revision A.03,
 Gaussian 16:  ES64L-G16RevA.03 25-Dec-2016

 -----------------------------------------------
 #p ROCCSD(T,MaxCyc=200)/cc-pVTZ SCF(MaxCyc=200)
 -----------------------------------------------

 ---------
 N2_N2_285
 ---------
 Symbolic Z-matrix:
 Charge = -1 Multiplicity = 2

                         Standard orientation:
 ---------------------------------------------------------------------
 Center     Atomic      Atomic             Coordinates (Angstroms)
 Number     Number       Type             X           Y           Z
 ---------------------------------------------------------------------
      1          7           0        0.000000    0.000000    3.490000
      2          7           0        0.000000    0.000000    2.400000
      3          7           0        0.000000    0.000000   -2.400000
      4          7           0        0.000000    0.000000   -3.490000
 ---------------------------------------------------------------------

 SCF Done:  E(ROHF) =  -217.819631616     A.U. after   11 cycles
 E2 =    -0.7702123728D+00 EUMP2 =    -0.21858984398866D+03
 CCSD(T)
 CCSD(T)= -0.21862002722D+03

 Unable to determine electronic state:  an orbital has unidentified symmetry.
 Alpha  occ. eigenvalues --  -15.42134 -15.42134 -15.41700 -15.41700  -1.23680
 Alpha  occ. eigenvalues --   -1.23677  -0.55957  -0.55860  -0.42527  -0.42347
 Alpha  occ. eigenvalues --   -0.40393  -0.40297  -0.38158  -0.38154   0.13272
 Alpha virt. eigenvalues --    0.22554   0.38090   0.38196   0.56715   0.63543
 Alpha virt. eigenvalues --    0.73526   0.75540   0.75691   0.75833   0.75947
 Alpha virt. eigenvalues --    0.78269   0.88408   0.88539   0.90732   0.91270

 Mulliken charges and spin densities:
               1          2
     1  N   -0.261405   0.244988
     2  N   -0.238595   0.255012
     3  N   -0.238595   0.255012
     4  N   -0.261405   0.244988
 Sum of Mulliken charges =  -1.00000   1.00000

 Dipole moment (field-independent basis, Debye):
    X=             -0.0000    Y=             -0.0000    Z=             -0.0000  Tot=              0.0000
 Quadrupole moment (field-independent basis, Debye-Ang):
   XX=            -22.4822   YY=            -24.2553   ZZ=            -72.3691
   XY=              0.0000   XZ=              0.0000   YZ=             -0.0000

 16\PMP2-0=-218.589844\MP4SDQ=-218.5851424\CCSD=-218.5818489\CCSD(T)=-2
 Normal termination of Gaussian 16 at Tue Feb 13 20:19:24 2024.
