 Gaussian 16, Revision A.03,
 Gaussian 16:  ES64L-G16RevA.03 25-Dec-2016

 -----------------------------------------------
 #p ROCCSD(T,MaxCyc=200)/cc-pVTZ SCF(MaxCyc=200)
 -----------------------------------------------

 ---------
 N2_N2_157
 ---------
 Symbolic Z-matrix:
 Charge = -1 Multiplicity = 2

                         Standard orientation:
 ---------------------------------------------------------------------
 Center     Atomic      Atomic             Coordinates (Angstroms)
 Number     Number       Type             X           Y           Z
 ---------------------------------------------------------------------
      1          7           0        0.578060   -2.390560    0.000000
      2          7           0       -0.192687   -1.619813    0.000000
      3          7           0       -0.192687    1.460187   -0.000000
      4          7           0       -0.192687    2.550186   -0.000000
 ---------------------------------------------------------------------

 SCF Done:  E(ROHF) =  -217.826232999     A.U. after   17 cycles
 E2 =    -0.7689426619D+00 EUMP2 =    -0.21859517566125D+03
 CCSD(T)
 CCSD(T)= -0.21862756392D+03

 The electronic state is 2-A".
 Alpha  occ. eigenvalues --  -15.41043 -15.40236 -15.39946 -15.39093  -1.22330
 Alpha  occ. eigenvalues --   -1.21274  -0.54761  -0.53141  -0.40897  -0.39949
 Alpha  occ. eigenvalues --   -0.39386  -0.37453  -0.36775  -0.35516   0.12462
 Alpha virt. eigenvalues --    0.27721   0.39394   0.40919   0.62607   0.64940
 Alpha virt. eigenvalues --    0.74167   0.75011   0.75562   0.78843   0.79882
 Alpha virt. eigenvalues --    0.86096   0.89540   0.89932   0.93503   0.97722

 Mulliken charges and spin densities:
               1          2
     1  N   -0.268730   0.246467
     2  N   -0.247083   0.269165
     3  N   -0.239299   0.256130
     4  N   -0.244888   0.228238
 Sum of Mulliken charges =  -1.00000   1.00000

 Dipole moment (field-independent basis, Debye):
    X=             -0.1343    Y=              0.2483    Z=              0.0000  Tot=              0.2822
 Quadrupole moment (field-independent basis, Debye-Ang):
   XX=            -24.3487   YY=            -48.5440   ZZ=            -24.3913
   XY=              3.7347   XZ=              0.0000   YZ=              0.0000

 262\CCSD=-218.5892426\CCSD(T)=-218.6275639\RMSD=3.819e-09\PG=CS [SG(N4
 Normal termination of Gaussian 16 at Tue Feb 13 16:28:58 2024.
