 Gaussian 16, Revision A.03,
 Gaussian 16:  ES64L-G16RevA.03 25-Dec-2016

 -----------------------------------------------
 #p ROCCSD(T,MaxCyc=200)/cc-pVTZ SCF(MaxCyc=200)
 -----------------------------------------------

 ---------
 N2_N2_259
 ---------
 Symbolic Z-matrix:
 Charge = -1 Multiplicity = 2

                         Standard orientation:
 ---------------------------------------------------------------------
 Center     Atomic      Atomic             Coordinates (Angstroms)
 Number     Number       Type             X           Y           Z
 ---------------------------------------------------------------------
      1          7           0        0.578060   -3.070560    0.000000
      2          7           0       -0.192687   -2.299813    0.000000
      3          7           0       -0.192687    2.140187   -0.000000
      4          7           0       -0.192687    3.230186   -0.000000
 ---------------------------------------------------------------------

 SCF Done:  E(ROHF) =  -217.820331525     A.U. after   16 cycles
 E2 =    -0.7699924528D+00 EUMP2 =    -0.21859032397772D+03
 CCSD(T)
 CCSD(T)= -0.21862014061D+03

 The electronic state is 2-A".
 Alpha  occ. eigenvalues --  -15.41978 -15.41636 -15.41511 -15.41193  -1.23489
 Alpha  occ. eigenvalues --   -1.23164  -0.55706  -0.55422  -0.42231  -0.41932
 Alpha  occ. eigenvalues --   -0.40154  -0.39864  -0.37961  -0.37620   0.13201
 Alpha virt. eigenvalues --    0.23336   0.38344   0.38577   0.57284   0.63346
 Alpha virt. eigenvalues --    0.73178   0.75753   0.75905   0.76160   0.76353
 Alpha virt. eigenvalues --    0.79644   0.88605   0.89132   0.90766   0.91931

 Mulliken charges and spin densities:
               1          2
     1  N   -0.265520   0.247455
     2  N   -0.238301   0.256450
     3  N   -0.236299   0.253820
     4  N   -0.259880   0.242276
 Sum of Mulliken charges =  -1.00000   1.00000

 Dipole moment (field-independent basis, Debye):
    X=             -0.0715    Y=              0.0596    Z=              0.0000  Tot=              0.0931
 Quadrupole moment (field-independent basis, Debye-Ang):
   XX=            -24.2586   YY=            -63.5882   ZZ=            -24.2642
   XY=              4.2812   XZ=              0.0000   YZ=              0.0000

 CCSD=-218.5834672\CCSD(T)=-218.6201406\RMSD=2.757e-09\PG=CS [SG(N4)]\\
 Normal termination of Gaussian 16 at Tue Feb 13 19:14:19 2024.
