 Gaussian 16, Revision A.03,
 Gaussian 16:  ES64L-G16RevA.03 25-Dec-2016

 -----------------------------------------------
 #p ROCCSD(T,MaxCyc=200)/cc-pVTZ SCF(MaxCyc=200)
 -----------------------------------------------

 ---------
 N2_N2_213
 ---------
 Symbolic Z-matrix:
 Charge = -1 Multiplicity = 2

                         Standard orientation:
 ---------------------------------------------------------------------
 Center     Atomic      Atomic             Coordinates (Angstroms)
 Number     Number       Type             X           Y           Z
 ---------------------------------------------------------------------
      1          7           0        0.000000    0.000000    3.010000
      2          7           0        0.000000    0.000000    1.920000
      3          7           0        0.000000    0.000000   -1.920000
      4          7           0        0.000000    0.000000   -3.010000
 ---------------------------------------------------------------------

 SCF Done:  E(ROHF) =  -217.821535547     A.U. after   11 cycles
 E2 =    -0.7695774865D+00 EUMP2 =    -0.21859111303327D+03
 CCSD(T)
 CCSD(T)= -0.21862228881D+03

 Unable to determine electronic state:  an orbital has unidentified symmetry.
 Alpha  occ. eigenvalues --  -15.41343 -15.41343 -15.40784 -15.40783  -1.22824
 Alpha  occ. eigenvalues --   -1.22813  -0.55176  -0.54765  -0.41688  -0.41354
 Alpha  occ. eigenvalues --   -0.39686  -0.39108  -0.37311  -0.37274   0.13073
 Alpha virt. eigenvalues --    0.24755   0.38663   0.39423   0.55864   0.65581
 Alpha virt. eigenvalues --    0.72011   0.75927   0.76228   0.76930   0.77188
 Alpha virt. eigenvalues --    0.88020   0.89129   0.90208   0.92841   0.93991

 Mulliken charges and spin densities:
               1          2
     1  N   -0.252712   0.241903
     2  N   -0.247288   0.258097
     3  N   -0.247288   0.258097
     4  N   -0.252712   0.241903
 Sum of Mulliken charges =  -1.00000   1.00000

 Dipole moment (field-independent basis, Debye):
    X=             -0.0000    Y=              0.0000    Z=              0.0000  Tot=              0.0000
 Quadrupole moment (field-independent basis, Debye-Ang):
   XX=            -22.4989   YY=            -24.3099   ZZ=            -60.1771
   XY=              0.0000   XZ=              0.0000   YZ=             -0.0000

 355\PMP2-0=-218.591113\MP4SDQ=-218.5874023\CCSD=-218.5840188\CCSD(T)=-
 Normal termination of Gaussian 16 at Tue Feb 13 17:51:45 2024.
