 Gaussian 16, Revision A.03,
 Gaussian 16:  ES64L-G16RevA.03 25-Dec-2016

 -----------------------------------------------
 #p ROCCSD(T,MaxCyc=200)/cc-pVTZ SCF(MaxCyc=200)
 -----------------------------------------------

 ---------
 N2_N2_195
 ---------
 Symbolic Z-matrix:
 Charge = -1 Multiplicity = 2

                         Standard orientation:
 ---------------------------------------------------------------------
 Center     Atomic      Atomic             Coordinates (Angstroms)
 Number     Number       Type             X           Y           Z
 ---------------------------------------------------------------------
      1          7           0        0.000000    0.000000    2.890000
      2          7           0        0.000000    0.000000    1.800000
      3          7           0        0.000000    0.000000   -1.800000
      4          7           0        0.000000    0.000000   -2.890000
 ---------------------------------------------------------------------

 SCF Done:  E(ROHF) =  -217.822647327     A.U. after   11 cycles
 E2 =    -0.7693116612D+00 EUMP2 =    -0.21859195898780D+03
 CCSD(T)
 CCSD(T)= -0.21862347381D+03

 Unable to determine electronic state:  an orbital has unidentified symmetry.
 Alpha  occ. eigenvalues --  -15.41117 -15.41117 -15.40496 -15.40496  -1.22567
 Alpha  occ. eigenvalues --   -1.22549  -0.54989  -0.54371  -0.41433  -0.41026
 Alpha  occ. eigenvalues --   -0.39542  -0.38653  -0.37060  -0.36998   0.12948
 Alpha virt. eigenvalues --    0.25541   0.38756   0.39882   0.57845   0.65332
 Alpha virt. eigenvalues --    0.71908   0.75896   0.76205   0.77393   0.77665
 Alpha virt. eigenvalues --    0.88558   0.89345   0.89880   0.92525   0.95258

 Mulliken charges and spin densities:
               1          2
     1  N   -0.249912   0.240379
     2  N   -0.250088   0.259621
     3  N   -0.250088   0.259621
     4  N   -0.249912   0.240379
 Sum of Mulliken charges =  -1.00000   1.00000

 Dipole moment (field-independent basis, Debye):
    X=             -0.0000    Y=              0.0000    Z=             -0.0000  Tot=              0.0000
 Quadrupole moment (field-independent basis, Debye-Ang):
   XX=            -22.5059   YY=            -24.3369   ZZ=            -57.4679
   XY=              0.0000   XZ=              0.0000   YZ=             -0.0000

 73\PMP2-0=-218.591959\MP4SDQ=-218.5886023\CCSD=-218.5851838\CCSD(T)=-2
 Normal termination of Gaussian 16 at Tue Feb 13 17:24:01 2024.
