 Gaussian 16, Revision A.03,
 Gaussian 16:  ES64L-G16RevA.03 25-Dec-2016

 -----------------------------------------------
 #p ROCCSD(T,MaxCyc=200)/cc-pVTZ SCF(MaxCyc=200)
 -----------------------------------------------

 ---------
 N2_N2_251
 ---------
 Symbolic Z-matrix:
 Charge = -1 Multiplicity = 2

                         Standard orientation:
 ---------------------------------------------------------------------
 Center     Atomic      Atomic             Coordinates (Angstroms)
 Number     Number       Type             X           Y           Z
 ---------------------------------------------------------------------
      1          7           0       -0.817500   -2.432500    0.000000
      2          7           0        0.272500   -2.432500    0.000000
      3          7           0        0.272500    1.887500    0.000000
      4          7           0        0.272500    2.977500    0.000000
 ---------------------------------------------------------------------

 SCF Done:  E(ROHF) =  -217.822232649     A.U. after   15 cycles
 E2 =    -0.7695139242D+00 EUMP2 =    -0.21859174657291D+03
 CCSD(T)
 CCSD(T)= -0.21862255595D+03

 The electronic state is 2-A'.
 Alpha  occ. eigenvalues --  -15.41816 -15.41280 -15.41088 -15.40742  -1.23261
 Alpha  occ. eigenvalues --   -1.22615  -0.55405  -0.54994  -0.41886  -0.41403
 Alpha  occ. eigenvalues --   -0.39871  -0.39403  -0.37728  -0.37135   0.13018
 Alpha virt. eigenvalues --    0.24477   0.38627   0.39043   0.59661   0.60991
 Alpha virt. eigenvalues --    0.72768   0.75746   0.76170   0.76235   0.76986
 Alpha virt. eigenvalues --    0.81238   0.88814   0.89908   0.91391   0.93580

 Mulliken charges and spin densities:
               1          2
     1  N   -0.259579   0.253346
     2  N   -0.248986   0.255569
     3  N   -0.232496   0.253036
     4  N   -0.258940   0.238048
 Sum of Mulliken charges =  -1.00000   1.00000

 Dipole moment (field-independent basis, Debye):
    X=              0.0371    Y=              0.0899    Z=              0.0000  Tot=              0.0972
 Quadrupole moment (field-independent basis, Debye-Ang):
   XX=            -26.9183   YY=            -56.3866   ZZ=            -22.4883
   XY=             -3.3665   XZ=              0.0000   YZ=              0.0000

 467\CCSD(T)=-218.622556\RMSD=6.890e-09\PG=CS [SG(N4)]\\@
 Normal termination of Gaussian 16 at Tue Feb 13 18:57:28 2024.
