 Gaussian 16, Revision A.03,
 Gaussian 16:  ES64L-G16RevA.03 25-Dec-2016

 -----------------------------------------------
 #p ROCCSD(T,MaxCyc=200)/cc-pVTZ SCF(MaxCyc=200)
 -----------------------------------------------

 ---------
 N2_N2_253
 ---------
 Symbolic Z-matrix:
 Charge = -1 Multiplicity = 2

                         Standard orientation:
 ---------------------------------------------------------------------
 Center     Atomic      Atomic             Coordinates (Angstroms)
 Number     Number       Type             X           Y           Z
 ---------------------------------------------------------------------
      1          7           0        0.578060   -3.030560    0.000000
      2          7           0       -0.192687   -2.259814    0.000000
      3          7           0       -0.192687    2.100187   -0.000000
      4          7           0       -0.192687    3.190186   -0.000000
 ---------------------------------------------------------------------

 SCF Done:  E(ROHF) =  -217.820465265     A.U. after   16 cycles
 E2 =    -0.7699484507D+00 EUMP2 =    -0.21859041371608D+03
 CCSD(T)
 CCSD(T)= -0.21862051950D+03

 The electronic state is 2-A".
 Alpha  occ. eigenvalues --  -15.41920 -15.41563 -15.41445 -15.41112  -1.23426
 Alpha  occ. eigenvalues --   -1.23087  -0.55641  -0.55338  -0.42164  -0.41851
 Alpha  occ. eigenvalues --   -0.40091  -0.39778  -0.37897  -0.37540   0.13188
 Alpha virt. eigenvalues --    0.23506   0.38404   0.38646   0.57134   0.63539
 Alpha virt. eigenvalues --    0.73022   0.75793   0.75927   0.76255   0.76466
 Alpha virt. eigenvalues --    0.80230   0.88656   0.89257   0.90742   0.92117

 Mulliken charges and spin densities:
               1          2
     1  N   -0.265685   0.247378
     2  N   -0.238315   0.256720
     3  N   -0.236488   0.253934
     4  N   -0.259512   0.241968
 Sum of Mulliken charges =  -1.00000   1.00000

 Dipole moment (field-independent basis, Debye):
    X=             -0.0737    Y=              0.0621    Z=              0.0000  Tot=              0.0964
 Quadrupole moment (field-independent basis, Debye-Ang):
   XX=            -24.2614   YY=            -62.5823   ZZ=            -24.2677
   XY=              4.2484   XZ=              0.0000   YZ=              0.0000

 61172\CCSD=-218.5834051\CCSD(T)=-218.6205195\RMSD=2.625e-09\PG=CS [SG(
 Normal termination of Gaussian 16 at Tue Feb 13 19:01:43 2024.
