 Gaussian 16, Revision A.03,
 Gaussian 16:  ES64L-G16RevA.03 25-Dec-2016

 -----------------------------------------------
 #p ROCCSD(T,MaxCyc=200)/cc-pVTZ SCF(MaxCyc=200)
 -----------------------------------------------

 ---------
 N2_N2_172
 ---------
 Symbolic Z-matrix:
 Charge = -1 Multiplicity = 2

                         Standard orientation:
 ---------------------------------------------------------------------
 Center     Atomic      Atomic             Coordinates (Angstroms)
 Number     Number       Type             X           Y           Z
 ---------------------------------------------------------------------
      1          7           0        0.578060   -2.490560    0.000000
      2          7           0       -0.192687   -1.719813   -0.000000
      3          7           0       -0.192687    1.560186   -0.000000
      4          7           0       -0.192687    2.650187   -0.000000
 ---------------------------------------------------------------------

 SCF Done:  E(ROHF) =  -217.824941763     A.U. after   17 cycles
 E2 =    -0.7691157906D+00 EUMP2 =    -0.21859405755354D+03
 CCSD(T)
 CCSD(T)= -0.21862609996D+03

 The electronic state is 2-A".
 Alpha  occ. eigenvalues --  -15.41170 -15.40442 -15.40304 -15.39557  -1.22506
 Alpha  occ. eigenvalues --   -1.21671  -0.54823  -0.53654  -0.41117  -0.40358
 Alpha  occ. eigenvalues --   -0.39405  -0.37996  -0.36961  -0.36010   0.12674
 Alpha virt. eigenvalues --    0.26812   0.39231   0.40372   0.61109   0.64756
 Alpha virt. eigenvalues --    0.72855   0.75271   0.75701   0.78295   0.79101
 Alpha virt. eigenvalues --    0.85737   0.89389   0.89872   0.92423   0.96629

 Mulliken charges and spin densities:
               1          2
     1  N   -0.266736   0.246189
     2  N   -0.245148   0.265572
     3  N   -0.242337   0.256049
     4  N   -0.245779   0.232190
 Sum of Mulliken charges =  -1.00000   1.00000

 Dipole moment (field-independent basis, Debye):
    X=             -0.1192    Y=              0.1864    Z=             -0.0000  Tot=              0.2213
 Quadrupole moment (field-independent basis, Debye-Ang):
   XX=            -24.3272   YY=            -50.4738   ZZ=            -24.3641
   XY=              3.8113   XZ=             -0.0000   YZ=              0.0000

 786\CCSD=-218.5878224\CCSD(T)=-218.6261\RMSD=9.831e-09\PG=CS [SG(N4)]\
 Normal termination of Gaussian 16 at Tue Feb 13 16:50:22 2024.
