 Gaussian 16, Revision A.03,
 Gaussian 16:  ES64L-G16RevA.03 25-Dec-2016

 -----------------------------------------------
 #p ROCCSD(T,MaxCyc=200)/cc-pVTZ SCF(MaxCyc=200)
 -----------------------------------------------

 ---------
 N2_N2_237
 ---------
 Symbolic Z-matrix:
 Charge = -1 Multiplicity = 2

                         Standard orientation:
 ---------------------------------------------------------------------
 Center     Atomic      Atomic             Coordinates (Angstroms)
 Number     Number       Type             X           Y           Z
 ---------------------------------------------------------------------
      1          7           0        0.000000    0.000000    3.170000
      2          7           0        0.000000    0.000000    2.080000
      3          7           0        0.000000    0.000000   -2.080000
      4          7           0        0.000000    0.000000   -3.170000
 ---------------------------------------------------------------------

 SCF Done:  E(ROHF) =  -217.820523246     A.U. after   11 cycles
 E2 =    -0.7698455120D+00 EUMP2 =    -0.21859036875845D+03
 CCSD(T)
 CCSD(T)= -0.21862114674D+03

 Unable to determine electronic state:  an orbital has unidentified symmetry.
 Alpha  occ. eigenvalues --  -15.41624 -15.41624 -15.41124 -15.41123  -1.23137
 Alpha  occ. eigenvalues --   -1.23130  -0.55442  -0.55197  -0.41997  -0.41732
 Alpha  occ. eigenvalues --   -0.39912  -0.39589  -0.37618  -0.37599   0.13180
 Alpha virt. eigenvalues --    0.23881   0.38500   0.38923   0.54834   0.65451
 Alpha virt. eigenvalues --    0.72385   0.75866   0.76162   0.76420   0.76672
 Alpha virt. eigenvalues --    0.85692   0.88867   0.90236   0.90558   0.92725

 Mulliken charges and spin densities:
               1          2
     1  N   -0.257191   0.243327
     2  N   -0.242809   0.256673
     3  N   -0.242809   0.256673
     4  N   -0.257191   0.243327
 Sum of Mulliken charges =  -1.00000   1.00000

 Dipole moment (field-independent basis, Debye):
    X=             -0.0000    Y=              0.0000    Z=              0.0000  Tot=              0.0000
 Quadrupole moment (field-independent basis, Debye-Ang):
   XX=            -22.4916   YY=            -24.2834   ZZ=            -63.9982
   XY=              0.0000   XZ=              0.0000   YZ=             -0.0000

 Normal termination of Gaussian 16 at Tue Feb 13 18:32:07 2024.
