 Gaussian 16, Revision A.03,
 Gaussian 16:  ES64L-G16RevA.03 25-Dec-2016

 -----------------------------------------------
 #p ROCCSD(T,MaxCyc=200)/cc-pVTZ SCF(MaxCyc=200)
 -----------------------------------------------

 --------
 N2_N2_46
 --------
 Symbolic Z-matrix:
 Charge = -1 Multiplicity = 2

                         Standard orientation:
 ---------------------------------------------------------------------
 Center     Atomic      Atomic             Coordinates (Angstroms)
 Number     Number       Type             X           Y           Z
 ---------------------------------------------------------------------
      1          7           0        0.578060   -1.650560    0.000000
      2          7           0       -0.192687   -0.879813    0.000000
      3          7           0       -0.192687    0.720187   -0.000000
      4          7           0       -0.192687    1.810186   -0.000000
 ---------------------------------------------------------------------

 SCF Done:  E(ROHF) =  -217.688663088     A.U. after   18 cycles
 E2 =    -0.7813147925D+00 EUMP2 =    -0.21846997788063D+03
 CCSD(T)
 CCSD(T)= -0.21850664454D+03

 The electronic state is 2-A".
 Alpha  occ. eigenvalues --  -15.42374 -15.35135 -15.33094 -15.32770  -1.21454
 Alpha  occ. eigenvalues --   -1.16364  -0.70009  -0.45671  -0.42153  -0.40158
 Alpha  occ. eigenvalues --   -0.38499  -0.34815  -0.30379  -0.13501   0.02811
 Alpha virt. eigenvalues --    0.42253   0.42849   0.47871   0.65269   0.66502
 Alpha virt. eigenvalues --    0.77398   0.77465   0.80790   0.84475   0.86778
 Alpha virt. eigenvalues --    0.89895   0.93197   0.96744   1.03538   1.05342

 Mulliken charges and spin densities:
               1          2
     1  N   -0.342590   0.071436
     2  N   -0.015543   0.046322
     3  N   -0.352473   0.388856
     4  N   -0.289394   0.493386
 Sum of Mulliken charges =  -1.00000   1.00000

 Dipole moment (field-independent basis, Debye):
    X=             -0.1915    Y=             -1.1196    Z=             -0.0000  Tot=              1.1358
 Quadrupole moment (field-independent basis, Debye-Ang):
   XX=            -24.8271   YY=            -40.0067   ZZ=            -23.7574
   XY=              3.0858   XZ=             -0.0000   YZ=              0.0000

 115\CCSD=-218.4643504\CCSD(T)=-218.5066445\RMSD=5.116e-09\PG=CS [SG(N4
 Normal termination of Gaussian 16 at Tue Feb 13 13:38:05 2024.
