 Gaussian 16, Revision A.03,
 Gaussian 16:  ES64L-G16RevA.03 25-Dec-2016

 -----------------------------------------------
 #p ROCCSD(T,MaxCyc=200)/cc-pVTZ SCF(MaxCyc=200)
 -----------------------------------------------

 --------
 N2_N2_81
 --------
 Symbolic Z-matrix:
 Charge = -1 Multiplicity = 2

                         Standard orientation:
 ---------------------------------------------------------------------
 Center     Atomic      Atomic             Coordinates (Angstroms)
 Number     Number       Type             X           Y           Z
 ---------------------------------------------------------------------
      1          7           0        0.000000    0.000000    2.130000
      2          7           0        0.000000    0.000000    1.040000
      3          7           0        0.000000    0.000000   -1.040000
      4          7           0        0.000000    0.000000   -2.130000
 ---------------------------------------------------------------------

 SCF Done:  E(ROHF) =  -217.792508887     A.U. after   12 cycles
 E2 =    -0.7715655499D+00 EUMP2 =    -0.21856407443666D+03
 CCSD(T)
 CCSD(T)= -0.21859729651D+03

 Unable to determine electronic state:  an orbital has unidentified symmetry.
 Alpha  occ. eigenvalues --  -15.37431 -15.37430 -15.36802 -15.36801  -1.19790
 Alpha  occ. eigenvalues --   -1.19245  -0.58364  -0.48383  -0.40406  -0.39457
 Alpha  occ. eigenvalues --   -0.36906  -0.34895  -0.33244  -0.27561   0.09904
 Alpha virt. eigenvalues --    0.35371   0.38647   0.46222   0.63290   0.65700
 Alpha virt. eigenvalues --    0.76863   0.77081   0.81899   0.82772   0.89580
 Alpha virt. eigenvalues --    0.91067   0.93513   0.95997   1.00808   1.07859

 Mulliken charges and spin densities:
               1          2
     1  N   -0.246288   0.227446
     2  N   -0.253712   0.272554
     3  N   -0.253712   0.272554
     4  N   -0.246288   0.227446
 Sum of Mulliken charges =  -1.00000   1.00000

 Dipole moment (field-independent basis, Debye):
    X=             -0.0000    Y=              0.0000    Z=             -0.0000  Tot=              0.0000
 Quadrupole moment (field-independent basis, Debye-Ang):
   XX=            -22.5727   YY=            -24.5076   ZZ=            -44.2011
   XY=              0.0000   XZ=              0.0000   YZ=             -0.0000

 89\PMP2-0=-218.5640744\MP4SDQ=-218.5625245\CCSD=-218.5585713\CCSD(T)=-
 Normal termination of Gaussian 16 at Tue Feb 13 14:35:47 2024.
