 Gaussian 16, Revision A.03,
 Gaussian 16:  ES64L-G16RevA.03 25-Dec-2016

 -----------------------------------------------
 #p ROCCSD(T,MaxCyc=200)/cc-pVTZ SCF(MaxCyc=200)
 -----------------------------------------------

 ---------
 N2_N2_112
 ---------
 Symbolic Z-matrix:
 Charge = -1 Multiplicity = 2

                         Standard orientation:
 ---------------------------------------------------------------------
 Center     Atomic      Atomic             Coordinates (Angstroms)
 Number     Number       Type             X           Y           Z
 ---------------------------------------------------------------------
      1          7           0        0.578060   -2.090560    0.000000
      2          7           0       -0.192687   -1.319813   -0.000000
      3          7           0       -0.192687    1.160187   -0.000000
      4          7           0       -0.192687    2.250186   -0.000000
 ---------------------------------------------------------------------

 SCF Done:  E(ROHF) =  -217.824989311     A.U. after   18 cycles
 E2 =    -0.7693977763D+00 EUMP2 =    -0.21859438708774D+03
 CCSD(T)
 CCSD(T)= -0.21862795619D+03

 The electronic state is 2-A".
 Alpha  occ. eigenvalues --  -15.40919 -15.39912 -15.37846 -15.36597  -1.22107
 Alpha  occ. eigenvalues --   -1.19250  -0.55551  -0.50777  -0.40390  -0.39939
 Alpha  occ. eigenvalues --   -0.38140  -0.36614  -0.34924  -0.32352   0.11354
 Alpha virt. eigenvalues --    0.31332   0.39695   0.43371   0.64206   0.65645
 Alpha virt. eigenvalues --    0.74633   0.75582   0.80829   0.81357   0.84134
 Alpha virt. eigenvalues --    0.87217   0.89667   0.91705   1.00731   1.01680

 Mulliken charges and spin densities:
               1          2
     1  N   -0.292417   0.261928
     2  N   -0.259931   0.290608
     3  N   -0.205661   0.243893
     4  N   -0.241992   0.203571
 Sum of Mulliken charges =  -1.00000   1.00000

 Dipole moment (field-independent basis, Debye):
    X=             -0.2416    Y=              0.7917    Z=             -0.0000  Tot=              0.8278
 Quadrupole moment (field-independent basis, Debye-Ang):
   XX=            -24.4762   YY=            -43.4973   ZZ=            -24.4566
   XY=              3.5642   XZ=             -0.0000   YZ=              0.0000

 26534\CCSD=-218.5893682\CCSD(T)=-218.6279562\RMSD=3.635e-09\PG=CS [SG(
 Normal termination of Gaussian 16 at Tue Feb 13 15:19:17 2024.
