 Gaussian 16, Revision A.03,
 Gaussian 16:  ES64L-G16RevA.03 25-Dec-2016

 -----------------------------------------------
 #p ROCCSD(T,MaxCyc=200)/cc-pVTZ SCF(MaxCyc=200)
 -----------------------------------------------

 ---------
 N2_N2_276
 ---------
 Symbolic Z-matrix:
 Charge = -1 Multiplicity = 2

                         Standard orientation:
 ---------------------------------------------------------------------
 Center     Atomic      Atomic             Coordinates (Angstroms)
 Number     Number       Type             X           Y           Z
 ---------------------------------------------------------------------
      1          7           0        0.000000    0.000000    3.430000
      2          7           0        0.000000    0.000000    2.340000
      3          7           0        0.000000    0.000000   -2.340000
      4          7           0        0.000000    0.000000   -3.430000
 ---------------------------------------------------------------------

 SCF Done:  E(ROHF) =  -217.819718429     A.U. after   11 cycles
 E2 =    -0.7701508402D+00 EUMP2 =    -0.21858986926958D+03
 CCSD(T)
 CCSD(T)= -0.21862014586D+03

 Unable to determine electronic state:  an orbital has unidentified symmetry.
 Alpha  occ. eigenvalues --  -15.42043 -15.42043 -15.41601 -15.41600  -1.23586
 Alpha  occ. eigenvalues --   -1.23582  -0.55865  -0.55750  -0.42435  -0.42242
 Alpha  occ. eigenvalues --   -0.40303  -0.40183  -0.38064  -0.38058   0.13263
 Alpha virt. eigenvalues --    0.22770   0.38171   0.38311   0.56189   0.64026
 Alpha virt. eigenvalues --    0.73308   0.75612   0.75805   0.75906   0.76060
 Alpha virt. eigenvalues --    0.79283   0.88490   0.88676   0.90746   0.91464

 Mulliken charges and spin densities:
               1          2
     1  N   -0.261228   0.244750
     2  N   -0.238772   0.255250
     3  N   -0.238772   0.255250
     4  N   -0.261228   0.244750
 Sum of Mulliken charges =  -1.00000   1.00000

 Dipole moment (field-independent basis, Debye):
    X=             -0.0000    Y=              0.0000    Z=              0.0000  Tot=              0.0000
 Quadrupole moment (field-independent basis, Debye-Ang):
   XX=            -24.2586   YY=            -22.4835   ZZ=            -70.7249
   XY=              0.0000   XZ=              0.0000   YZ=             -0.0000

 Normal termination of Gaussian 16 at Tue Feb 13 19:49:33 2024.
