 Gaussian 16, Revision A.03,
 Gaussian 16:  ES64L-G16RevA.03 25-Dec-2016

 -----------------------------------------------
 #p ROCCSD(T,MaxCyc=200)/cc-pVTZ SCF(MaxCyc=200)
 -----------------------------------------------

 -------
 N2_N2_1
 -------
 Symbolic Z-matrix:
 Charge = -1 Multiplicity = 2

                         Standard orientation:
 ---------------------------------------------------------------------
 Center     Atomic      Atomic             Coordinates (Angstroms)
 Number     Number       Type             X           Y           Z
 ---------------------------------------------------------------------
      1          7           0        0.578060   -1.350560    0.000000
      2          7           0       -0.192687   -0.579813    0.000000
      3          7           0       -0.192687    0.420187   -0.000000
      4          7           0       -0.192687    1.510186   -0.000000
 ---------------------------------------------------------------------

 SCF Done:  E(ROHF) =  -217.458004040     A.U. after   18 cycles
 E2 =    -0.7861375402D+00 EUMP2 =    -0.21824414157988D+03
 CCSD(T)
 CCSD(T)= -0.21826779348D+03

 The electronic state is 2-A".
 Alpha  occ. eigenvalues --  -15.48753 -15.40757 -15.34096 -15.24683  -1.42355
 Alpha  occ. eigenvalues --   -1.17773  -1.01582  -0.61441  -0.58573  -0.41769
 Alpha  occ. eigenvalues --   -0.36039  -0.31083  -0.27357  -0.03250  -0.02265
 Alpha virt. eigenvalues --    0.43145   0.52343   0.62169   0.64174   0.73931
 Alpha virt. eigenvalues --    0.74034   0.75307   0.76031   0.85925   0.90284
 Alpha virt. eigenvalues --    0.91829   0.93433   0.97340   1.01297   1.04201

 Mulliken charges and spin densities:
               1          2
     1  N   -0.902213   0.562444
     2  N    0.275067   0.041724
     3  N    0.129545   0.120204
     4  N   -0.502399   0.275629
 Sum of Mulliken charges =  -1.00000   1.00000

 Dipole moment (field-independent basis, Debye):
    X=             -1.9601    Y=              1.2939    Z=              0.0000  Tot=              2.3486
 Quadrupole moment (field-independent basis, Debye-Ang):
   XX=            -26.0081   YY=            -41.3094   ZZ=            -22.3061
   XY=              4.6131   XZ=             -0.0000   YZ=              0.0000

 3\CCSD=-218.2280506\CCSD(T)=-218.2677935\RMSD=4.945e-09\PG=CS [SG(N4)]
 Normal termination of Gaussian 16 at Tue Feb 13 12:20:14 2024.
