 Gaussian 16, Revision A.03,
 Gaussian 16:  ES64L-G16RevA.03 25-Dec-2016

 -----------------------------------------------
 #p ROCCSD(T,MaxCyc=200)/cc-pVTZ SCF(MaxCyc=200)
 -----------------------------------------------

 --------
 N2_N2_99
 --------
 Symbolic Z-matrix:
 Charge = -1 Multiplicity = 2

                         Standard orientation:
 ---------------------------------------------------------------------
 Center     Atomic      Atomic             Coordinates (Angstroms)
 Number     Number       Type             X           Y           Z
 ---------------------------------------------------------------------
      1          7           0        0.000000    0.000000    2.250000
      2          7           0        0.000000    0.000000    1.160000
      3          7           0        0.000000    0.000000   -1.160000
      4          7           0        0.000000    0.000000   -2.250000
 ---------------------------------------------------------------------

 SCF Done:  E(ROHF) =  -217.816645023     A.U. after   12 cycles
 E2 =    -0.7691467356D+00 EUMP2 =    -0.21858579175879D+03
 CCSD(T)
 CCSD(T)= -0.21861901405D+03

 Unable to determine electronic state:  an orbital has unidentified symmetry.
 Alpha  occ. eigenvalues --  -15.38659 -15.38659 -15.37777 -15.37776  -1.20434
 Alpha  occ. eigenvalues --   -1.20137  -0.56225  -0.49925  -0.40061  -0.39711
 Alpha  occ. eigenvalues --   -0.37957  -0.35264  -0.34309  -0.31587   0.10848
 Alpha virt. eigenvalues --    0.32980   0.38805   0.44554   0.63398   0.65982
 Alpha virt. eigenvalues --    0.76186   0.76475   0.81014   0.81694   0.89812
 Alpha virt. eigenvalues --    0.90578   0.91842   0.93319   0.94400   1.05697

 Mulliken charges and spin densities:
               1          2
     1  N   -0.257113   0.226916
     2  N   -0.242887   0.273084
     3  N   -0.242887   0.273084
     4  N   -0.257113   0.226916
 Sum of Mulliken charges =  -1.00000   1.00000

 Dipole moment (field-independent basis, Debye):
    X=             -0.0000    Y=              0.0000    Z=             -0.0000  Tot=              0.0000
 Quadrupole moment (field-independent basis, Debye-Ang):
   XX=            -22.5691   YY=            -24.5213   ZZ=            -45.7219
   XY=              0.0000   XZ=              0.0000   YZ=             -0.0000

 5\PMP2-0=-218.5857918\MP4SDQ=-218.5843581\CCSD=-218.580576\CCSD(T)=-21
 Normal termination of Gaussian 16 at Tue Feb 13 14:57:26 2024.
