 Gaussian 16, Revision A.03,
 Gaussian 16:  ES64L-G16RevA.03 25-Dec-2016

 -----------------------------------------------
 #p ROCCSD(T,MaxCyc=200)/cc-pVTZ SCF(MaxCyc=200)
 -----------------------------------------------

 ---------
 N2_N2_244
 ---------
 Symbolic Z-matrix:
 Charge = -1 Multiplicity = 2

                         Standard orientation:
 ---------------------------------------------------------------------
 Center     Atomic      Atomic             Coordinates (Angstroms)
 Number     Number       Type             X           Y           Z
 ---------------------------------------------------------------------
      1          7           0        0.578060   -2.970560   -0.000000
      2          7           0       -0.192687   -2.199813   -0.000000
      3          7           0       -0.192687    2.040187    0.000000
      4          7           0       -0.192687    3.130186    0.000000
 ---------------------------------------------------------------------

 SCF Done:  E(ROHF) =  -217.820704989     A.U. after   16 cycles
 E2 =    -0.7698801423D+00 EUMP2 =    -0.21859058513089D+03
 CCSD(T)
 CCSD(T)= -0.21862102079D+03

 The electronic state is 2-A".
 Alpha  occ. eigenvalues --  -15.41833 -15.41451 -15.41343 -15.40985  -1.23329
 Alpha  occ. eigenvalues --   -1.22966  -0.55542  -0.55205  -0.42062  -0.41724
 Alpha  occ. eigenvalues --   -0.39996  -0.39642  -0.37800  -0.37415   0.13163
 Alpha virt. eigenvalues --    0.23776   0.38495   0.38759   0.56979   0.63795
 Alpha virt. eigenvalues --    0.72795   0.75847   0.75947   0.76410   0.76651
 Alpha virt. eigenvalues --    0.81139   0.88731   0.89470   0.90688   0.92430

 Mulliken charges and spin densities:
               1          2
     1  N   -0.265852   0.247257
     2  N   -0.238463   0.257180
     3  N   -0.236956   0.254117
     4  N   -0.258729   0.241447
 Sum of Mulliken charges =  -1.00000   1.00000

 Dipole moment (field-independent basis, Debye):
    X=             -0.0773    Y=              0.0668    Z=              0.0000  Tot=              0.1022
 Quadrupole moment (field-independent basis, Debye-Ang):
   XX=            -24.2660   YY=            -61.1016   ZZ=            -24.2737
   XY=              4.1992   XZ=             -0.0000   YZ=             -0.0000

 064\CCSD=-218.5834677\CCSD(T)=-218.6210208\RMSD=3.124e-09\PG=CS [SG(N4
 Normal termination of Gaussian 16 at Tue Feb 13 18:44:46 2024.
