 Gaussian 16, Revision A.03,
 Gaussian 16:  ES64L-G16RevA.03 25-Dec-2016

 -----------------------------------------------
 #p ROCCSD(T,MaxCyc=200)/cc-pVTZ SCF(MaxCyc=200)
 -----------------------------------------------

 ---------
 N2_N2_278
 ---------
 Symbolic Z-matrix:
 Charge = -1 Multiplicity = 2

                         Standard orientation:
 ---------------------------------------------------------------------
 Center     Atomic      Atomic             Coordinates (Angstroms)
 Number     Number       Type             X           Y           Z
 ---------------------------------------------------------------------
      1          7           0       -0.817500   -2.612500    0.000000
      2          7           0        0.272500   -2.612500    0.000000
      3          7           0        0.272500    2.067500    0.000000
      4          7           0        0.272500    3.157500    0.000000
 ---------------------------------------------------------------------

 SCF Done:  E(ROHF) =  -217.821068475     A.U. after   15 cycles
 E2 =    -0.7697978838D+00 EUMP2 =    -0.21859086635836D+03
 CCSD(T)
 CCSD(T)= -0.21862066546D+03

 The electronic state is 2-A'.
 Alpha  occ. eigenvalues --  -15.42064 -15.41584 -15.41433 -15.41087  -1.23549
 Alpha  occ. eigenvalues --   -1.22981  -0.55727  -0.55354  -0.42213  -0.41778
 Alpha  occ. eigenvalues --   -0.40187  -0.39779  -0.38018  -0.37494   0.13128
 Alpha virt. eigenvalues --    0.23590   0.38319   0.38689   0.60090   0.60650
 Alpha virt. eigenvalues --    0.73723   0.75467   0.75829   0.76045   0.76538
 Alpha virt. eigenvalues --    0.78843   0.88588   0.89407   0.90807   0.92294

 Mulliken charges and spin densities:
               1          2
     1  N   -0.257436   0.253035
     2  N   -0.250145   0.254689
     3  N   -0.232803   0.252229
     4  N   -0.259617   0.240048
 Sum of Mulliken charges =  -1.00000   1.00000

 Dipole moment (field-independent basis, Debye):
    X=              0.0322    Y=              0.0902    Z=              0.0000  Tot=              0.0958
 Quadrupole moment (field-independent basis, Debye-Ang):
   XX=            -26.8876   YY=            -60.7203   ZZ=            -22.4826
   XY=             -3.5831   XZ=              0.0000   YZ=              0.0000

 21\CCSD(T)=-218.6206655\RMSD=3.250e-09\PG=CS [SG(N4)]\\@
 Normal termination of Gaussian 16 at Tue Feb 13 19:56:07 2024.
