 Gaussian 16, Revision A.03,
 Gaussian 16:  ES64L-G16RevA.03 25-Dec-2016

 -----------------------------------------------
 #p ROCCSD(T,MaxCyc=200)/cc-pVTZ SCF(MaxCyc=200)
 -----------------------------------------------

 ---------
 N2_N2_129
 ---------
 Symbolic Z-matrix:
 Charge = -1 Multiplicity = 2

                         Standard orientation:
 ---------------------------------------------------------------------
 Center     Atomic      Atomic             Coordinates (Angstroms)
 Number     Number       Type             X           Y           Z
 ---------------------------------------------------------------------
      1          7           0        0.000000    0.000000    2.450000
      2          7           0        0.000000    0.000000    1.360000
      3          7           0        0.000000    0.000000   -1.360000
      4          7           0        0.000000    0.000000   -2.450000
 ---------------------------------------------------------------------

 SCF Done:  E(ROHF) =  -217.826701816     A.U. after   12 cycles
 E2 =    -0.7682260143D+00 EUMP2 =    -0.21859492783041D+03
 CCSD(T)
 CCSD(T)= -0.21862776291D+03

 Unable to determine electronic state:  an orbital has unidentified symmetry.
 Alpha  occ. eigenvalues --  -15.39897 -15.39896 -15.38965 -15.38965  -1.21308
 Alpha  occ. eigenvalues --   -1.21196  -0.54907  -0.51929  -0.40287  -0.39564
 Alpha  occ. eigenvalues --   -0.39271  -0.35920  -0.35523  -0.35341   0.11890
 Alpha virt. eigenvalues --    0.29876   0.38880   0.42515   0.63815   0.66256
 Alpha virt. eigenvalues --    0.75614   0.75967   0.79685   0.80022   0.80154
 Alpha virt. eigenvalues --    0.89810   0.90054   0.90291   0.92679   1.02051

 Mulliken charges and spin densities:
               1          2
     1  N   -0.256024   0.230707
     2  N   -0.243976   0.269293
     3  N   -0.243976   0.269293
     4  N   -0.256024   0.230707
 Sum of Mulliken charges =  -1.00000   1.00000

 Dipole moment (field-independent basis, Debye):
    X=             -0.0000    Y=              0.0000    Z=             -0.0000  Tot=              0.0000
 Quadrupole moment (field-independent basis, Debye-Ang):
   XX=            -22.5473   YY=            -24.4772   ZZ=            -48.7969
   XY=              0.0000   XZ=              0.0000   YZ=             -0.0000

 Normal termination of Gaussian 16 at Tue Feb 13 15:44:44 2024.
