 Gaussian 16, Revision A.03,
 Gaussian 16:  ES64L-G16RevA.03 25-Dec-2016

 -----------------------------------------------
 #p ROCCSD(T,MaxCyc=200)/cc-pVTZ SCF(MaxCyc=200)
 -----------------------------------------------

 ---------
 N2_N2_154
 ---------
 Symbolic Z-matrix:
 Charge = -1 Multiplicity = 2

                         Standard orientation:
 ---------------------------------------------------------------------
 Center     Atomic      Atomic             Coordinates (Angstroms)
 Number     Number       Type             X           Y           Z
 ---------------------------------------------------------------------
      1          7           0        0.578060   -2.370560   -0.000000
      2          7           0       -0.192687   -1.599814   -0.000000
      3          7           0       -0.192687    1.440187    0.000000
      4          7           0       -0.192687    2.530186    0.000000
 ---------------------------------------------------------------------

 SCF Done:  E(ROHF) =  -217.826473714     A.U. after   17 cycles
 E2 =    -0.7689149837D+00 EUMP2 =    -0.21859538869787D+03
 CCSD(T)
 CCSD(T)= -0.21862784708D+03

 The electronic state is 2-A".
 Alpha  occ. eigenvalues --  -15.41019 -15.40195 -15.39864 -15.38987  -1.22296
 Alpha  occ. eigenvalues --   -1.21185  -0.54758  -0.53026  -0.40853  -0.39859
 Alpha  occ. eigenvalues --   -0.39391  -0.37334  -0.36736  -0.35399   0.12412
 Alpha virt. eigenvalues --    0.27918   0.39426   0.41039   0.62867   0.64969
 Alpha virt. eigenvalues --    0.74531   0.74978   0.75537   0.78959   0.80054
 Alpha virt. eigenvalues --    0.86163   0.89569   0.89971   0.93766   0.97959

 Mulliken charges and spin densities:
               1          2
     1  N   -0.269341   0.246623
     2  N   -0.247466   0.270009
     3  N   -0.238243   0.256063
     4  N   -0.244949   0.227305
 Sum of Mulliken charges =  -1.00000   1.00000

 Dipole moment (field-independent basis, Debye):
    X=             -0.1379    Y=              0.2640    Z=              0.0000  Tot=              0.2979
 Quadrupole moment (field-independent basis, Debye-Ang):
   XX=            -24.3537   YY=            -48.1714   ZZ=            -24.3968
   XY=              3.7199   XZ=              0.0000   YZ=             -0.0000

 29045\CCSD=-218.5895166\CCSD(T)=-218.6278471\RMSD=3.643e-09\PG=CS [SG(
 Normal termination of Gaussian 16 at Tue Feb 13 16:24:26 2024.
