 Gaussian 16, Revision A.03,
 Gaussian 16:  ES64L-G16RevA.03 25-Dec-2016

 -----------------------------------------------
 #p ROCCSD(T,MaxCyc=200)/cc-pVTZ SCF(MaxCyc=200)
 -----------------------------------------------

 ---------
 N2_N2_250
 ---------
 Symbolic Z-matrix:
 Charge = -1 Multiplicity = 2

                         Standard orientation:
 ---------------------------------------------------------------------
 Center     Atomic      Atomic             Coordinates (Angstroms)
 Number     Number       Type             X           Y           Z
 ---------------------------------------------------------------------
      1          7           0        0.578060   -3.010560   -0.000000
      2          7           0       -0.192687   -2.239813   -0.000000
      3          7           0       -0.192687    2.080186    0.000000
      4          7           0       -0.192687    3.170187    0.000000
 ---------------------------------------------------------------------

 SCF Done:  E(ROHF) =  -217.820539861     A.U. after   16 cycles
 E2 =    -0.7699263495D+00 EUMP2 =    -0.21859046621061D+03
 CCSD(T)
 CCSD(T)= -0.21862069370D+03

 The electronic state is 2-A".
 Alpha  occ. eigenvalues --  -15.41891 -15.41526 -15.41411 -15.41070  -1.23394
 Alpha  occ. eigenvalues --   -1.23047  -0.55608  -0.55295  -0.42131  -0.41809
 Alpha  occ. eigenvalues --   -0.40059  -0.39734  -0.37865  -0.37499   0.13180
 Alpha virt. eigenvalues --    0.23594   0.38435   0.38683   0.57072   0.63629
 Alpha virt. eigenvalues --    0.72945   0.75812   0.75935   0.76305   0.76526
 Alpha virt. eigenvalues --    0.80531   0.88681   0.89325   0.90727   0.92216

 Mulliken charges and spin densities:
               1          2
     1  N   -0.265753   0.247341
     2  N   -0.238350   0.256868
     3  N   -0.236616   0.253991
     4  N   -0.259281   0.241800
 Sum of Mulliken charges =  -1.00000   1.00000

 Dipole moment (field-independent basis, Debye):
    X=             -0.0749    Y=              0.0637    Z=              0.0000  Tot=              0.0983
 Quadrupole moment (field-independent basis, Debye-Ang):
   XX=            -24.2629   YY=            -62.0849   ZZ=            -24.2695
   XY=              4.2320   XZ=              0.0000   YZ=             -0.0000

 62079\CCSD=-218.5834077\CCSD(T)=-218.6206937\RMSD=2.324e-09\PG=CS [SG(
 Normal termination of Gaussian 16 at Tue Feb 13 18:55:38 2024.
