 Gaussian 16, Revision A.03,
 Gaussian 16:  ES64L-G16RevA.03 25-Dec-2016

 -----------------------------------------------
 #p ROCCSD(T,MaxCyc=200)/cc-pVTZ SCF(MaxCyc=200)
 -----------------------------------------------

 ---------
 N2_N2_109
 ---------
 Symbolic Z-matrix:
 Charge = -1 Multiplicity = 2

                         Standard orientation:
 ---------------------------------------------------------------------
 Center     Atomic      Atomic             Coordinates (Angstroms)
 Number     Number       Type             X           Y           Z
 ---------------------------------------------------------------------
      1          7           0        0.578060   -2.070560    0.000000
      2          7           0       -0.192687   -1.299814    0.000000
      3          7           0       -0.192687    1.140187   -0.000000
      4          7           0       -0.192687    2.230187   -0.000000
 ---------------------------------------------------------------------

 SCF Done:  E(ROHF) =  -217.824044781     A.U. after   18 cycles
 E2 =    -0.7695381182D+00 EUMP2 =    -0.21859358289888D+03
 CCSD(T)
 CCSD(T)= -0.21862727643D+03

 The electronic state is 2-A".
 Alpha  occ. eigenvalues --  -15.40971 -15.39960 -15.37575 -15.36301  -1.22156
 Alpha  occ. eigenvalues --   -1.19016  -0.55720  -0.50559  -0.40390  -0.40022
 Alpha  occ. eigenvalues --   -0.37964  -0.36661  -0.34681  -0.31963   0.11241
 Alpha virt. eigenvalues --    0.31632   0.39671   0.43622   0.64093   0.65818
 Alpha virt. eigenvalues --    0.74644   0.75617   0.80989   0.81681   0.84585
 Alpha virt. eigenvalues --    0.87334   0.89616   0.91921   1.01480   1.01976

 Mulliken charges and spin densities:
               1          2
     1  N   -0.296166   0.265416
     2  N   -0.262478   0.293477
     3  N   -0.201500   0.240974
     4  N   -0.239855   0.200134
 Sum of Mulliken charges =  -1.00000   1.00000

 Dipole moment (field-independent basis, Debye):
    X=             -0.2570    Y=              0.8797    Z=             -0.0000  Tot=              0.9165
 Quadrupole moment (field-independent basis, Debye-Ang):
   XX=            -24.4927   YY=            -43.2056   ZZ=            -24.4574
   XY=              3.5606   XZ=             -0.0000   YZ=              0.0000

 1891\CCSD=-218.588649\CCSD(T)=-218.6272764\RMSD=4.580e-09\PG=CS [SG(N4
 Normal termination of Gaussian 16 at Tue Feb 13 15:14:40 2024.
