 Gaussian 16, Revision A.03,
 Gaussian 16:  ES64L-G16RevA.03 25-Dec-2016

 -----------------------------------------------
 #p ROCCSD(T,MaxCyc=200)/cc-pVTZ SCF(MaxCyc=200)
 -----------------------------------------------

 ---------
 N2_N2_126
 ---------
 Symbolic Z-matrix:
 Charge = -1 Multiplicity = 2

                         Standard orientation:
 ---------------------------------------------------------------------
 Center     Atomic      Atomic             Coordinates (Angstroms)
 Number     Number       Type             X           Y           Z
 ---------------------------------------------------------------------
      1          7           0        0.000000    0.000000    2.430000
      2          7           0        0.000000    0.000000    1.340000
      3          7           0        0.000000    0.000000   -1.340000
      4          7           0        0.000000    0.000000   -2.430000
 ---------------------------------------------------------------------

 SCF Done:  E(ROHF) =  -217.826485401     A.U. after   12 cycles
 E2 =    -0.7682271763D+00 EUMP2 =    -0.21859471257706D+03
 CCSD(T)
 CCSD(T)= -0.21862759850D+03

 Unable to determine electronic state:  an orbital has unidentified symmetry.
 Alpha  occ. eigenvalues --  -15.39806 -15.39805 -15.38866 -15.38865  -1.21232
 Alpha  occ. eigenvalues --   -1.21109  -0.54966  -0.51760  -0.40228  -0.39599
 Alpha  occ. eigenvalues --   -0.39160  -0.35857  -0.35425  -0.35070   0.11808
 Alpha virt. eigenvalues --    0.30146   0.38878   0.42687   0.63766   0.66279
 Alpha virt. eigenvalues --    0.75638   0.75988   0.79810   0.80296   0.81096
 Alpha virt. eigenvalues --    0.89879   0.90174   0.90342   0.92795   1.02410

 Mulliken charges and spin densities:
               1          2
     1  N   -0.256827   0.230208
     2  N   -0.243173   0.269792
     3  N   -0.243173   0.269792
     4  N   -0.256827   0.230208
 Sum of Mulliken charges =  -1.00000   1.00000

 Dipole moment (field-independent basis, Debye):
    X=             -0.0000    Y=              0.0000    Z=              0.0000  Tot=              0.0000
 Quadrupole moment (field-independent basis, Debye-Ang):
   XX=            -24.4835   YY=            -22.5498   ZZ=            -48.4603
   XY=              0.0000   XZ=              0.0000   YZ=             -0.0000

 4854\PMP2-0=-218.5947126\MP4SDQ=-218.5929247\CCSD=-218.58929\CCSD(T)=-
 Normal termination of Gaussian 16 at Tue Feb 13 15:40:18 2024.
