 Gaussian 16, Revision A.03,
 Gaussian 16:  ES64L-G16RevA.03 25-Dec-2016

 -----------------------------------------------
 #p ROCCSD(T,MaxCyc=200)/cc-pVTZ SCF(MaxCyc=200)
 -----------------------------------------------

 --------
 N2_N2_31
 --------
 Symbolic Z-matrix:
 Charge = -1 Multiplicity = 2

                         Standard orientation:
 ---------------------------------------------------------------------
 Center     Atomic      Atomic             Coordinates (Angstroms)
 Number     Number       Type             X           Y           Z
 ---------------------------------------------------------------------
      1          7           0        0.578060   -1.550560    0.000000
      2          7           0       -0.192687   -0.779813    0.000000
      3          7           0       -0.192687    0.620186   -0.000000
      4          7           0       -0.192687    1.710187   -0.000000
 ---------------------------------------------------------------------

 SCF Done:  E(ROHF) =  -217.624245463     A.U. after   17 cycles
 E2 =    -0.7737139965D+00 EUMP2 =    -0.21839795945992D+03
 CCSD(T)
 CCSD(T)= -0.21843999646D+03

 The electronic state is 2-A".
 Alpha  occ. eigenvalues --  -15.41181 -15.40111 -15.37360 -15.28808  -1.24092
 Alpha  occ. eigenvalues --   -1.17020  -0.80306  -0.48075  -0.45867  -0.42804
 Alpha  occ. eigenvalues --   -0.37322  -0.33098  -0.31134  -0.05762  -0.01808
 Alpha virt. eigenvalues --    0.41019   0.45993   0.54115   0.63428   0.69467
 Alpha virt. eigenvalues --    0.76367   0.76643   0.81154   0.84843   0.85423
 Alpha virt. eigenvalues --    0.90611   0.93861   0.96998   1.02521   1.02769

 Mulliken charges and spin densities:
               1          2
     1  N   -0.549232   0.082260
     2  N   -0.038977   0.021587
     3  N   -0.138541   0.351778
     4  N   -0.273249   0.544375
 Sum of Mulliken charges =  -1.00000   1.00000

 Dipole moment (field-independent basis, Debye):
    X=             -0.6809    Y=              1.2611    Z=             -0.0000  Tot=              1.4332
 Quadrupole moment (field-independent basis, Debye-Ang):
   XX=            -25.7344   YY=            -40.4118   ZZ=            -23.1934
   XY=              3.3771   XZ=              0.0000   YZ=              0.0000

 8652\CCSD=-218.3980631\CCSD(T)=-218.4399965\RMSD=9.752e-09\PG=CS [SG(N
 Normal termination of Gaussian 16 at Tue Feb 13 13:11:36 2024.
