 Gaussian 16, Revision A.03,
 Gaussian 16:  ES64L-G16RevA.03 25-Dec-2016

 -----------------------------------------------
 #p ROCCSD(T,MaxCyc=200)/cc-pVTZ SCF(MaxCyc=200)
 -----------------------------------------------

 --------
 N2_N2_51
 --------
 Symbolic Z-matrix:
 Charge = -1 Multiplicity = 2

                         Standard orientation:
 ---------------------------------------------------------------------
 Center     Atomic      Atomic             Coordinates (Angstroms)
 Number     Number       Type             X           Y           Z
 ---------------------------------------------------------------------
      1          7           0        0.000000    0.000000    1.930000
      2          7           0        0.000000    0.000000    0.840000
      3          7           0        0.000000    0.000000   -0.840000
      4          7           0        0.000000    0.000000   -1.930000
 ---------------------------------------------------------------------

 SCF Done:  E(ROHF) =  -217.657272348     A.U. after   12 cycles
 E2 =    -0.7851485333D+00 EUMP2 =    -0.21844242088148D+03
 CCSD(T)
 CCSD(T)= -0.21847446284D+03

 Unable to determine electronic state:  an orbital has unidentified symmetry.
 Alpha  occ. eigenvalues --  -15.34830 -15.34830 -15.34194 -15.34188  -1.18792
 Alpha  occ. eigenvalues --   -1.17163  -0.66871  -0.45497  -0.40581  -0.39783
 Alpha  occ. eigenvalues --   -0.34850  -0.34598  -0.30562  -0.14221   0.07340
 Alpha virt. eigenvalues --    0.37886   0.40652   0.50122   0.63369   0.65030
 Alpha virt. eigenvalues --    0.78169   0.78316   0.83480   0.84883   0.86232
 Alpha virt. eigenvalues --    0.91229   0.96636   0.98981   1.05407   1.11264

 Mulliken charges and spin densities:
               1          2
     1  N   -0.169835   0.241676
     2  N   -0.330165   0.258324
     3  N   -0.330165   0.258324
     4  N   -0.169835   0.241676
 Sum of Mulliken charges =  -1.00000   1.00000

 Dipole moment (field-independent basis, Debye):
    X=             -0.0000    Y=             -0.0000    Z=              0.0000  Tot=              0.0000
 Quadrupole moment (field-independent basis, Debye-Ang):
   XX=            -24.3512   YY=            -22.5479   ZZ=            -42.1222
   XY=              0.0000   XZ=              0.0000   YZ=             -0.0000

 723\PMP2-0=-218.4424209\MP4SDQ=-218.4386754\CCSD=-218.4339818\CCSD(T)=
 Normal termination of Gaussian 16 at Tue Feb 13 13:46:57 2024.
