 Gaussian 16, Revision A.03,
 Gaussian 16:  ES64L-G16RevA.03 25-Dec-2016

 -----------------------------------------------
 #p ROCCSD(T,MaxCyc=200)/cc-pVTZ SCF(MaxCyc=200)
 -----------------------------------------------

 ---------
 N2_N2_176
 ---------
 Symbolic Z-matrix:
 Charge = -1 Multiplicity = 2

                         Standard orientation:
 ---------------------------------------------------------------------
 Center     Atomic      Atomic             Coordinates (Angstroms)
 Number     Number       Type             X           Y           Z
 ---------------------------------------------------------------------
      1          7           0       -0.817500   -1.932500    0.000000
      2          7           0        0.272500   -1.932500    0.000000
      3          7           0        0.272500    1.387500    0.000000
      4          7           0        0.272500    2.477500    0.000000
 ---------------------------------------------------------------------

 SCF Done:  E(ROHF) =  -217.829623590     A.U. after   16 cycles
 E2 =    -0.7686727237D+00 EUMP2 =    -0.21859829631334D+03
 CCSD(T)
 CCSD(T)= -0.21863086764D+03

 The electronic state is 2-A'.
 Alpha  occ. eigenvalues --  -15.41325 -15.40416 -15.39592 -15.39241  -1.22492
 Alpha  occ. eigenvalues --   -1.21045  -0.54481  -0.53490  -0.40822  -0.40322
 Alpha  occ. eigenvalues --   -0.38747  -0.37514  -0.36942  -0.35604   0.12207
 Alpha virt. eigenvalues --    0.28261   0.39473   0.40538   0.60921   0.63266
 Alpha virt. eigenvalues --    0.71873   0.75925   0.76124   0.77776   0.79346
 Alpha virt. eigenvalues --    0.83564   0.88691   0.89737   0.94822   0.96625

 Mulliken charges and spin densities:
               1          2
     1  N   -0.279357   0.258348
     2  N   -0.242671   0.264247
     3  N   -0.231852   0.254667
     4  N   -0.246120   0.222738
 Sum of Mulliken charges =  -1.00000   1.00000

 Dipole moment (field-independent basis, Debye):
    X=              0.1094    Y=              0.2573    Z=              0.0000  Tot=              0.2796
 Quadrupole moment (field-independent basis, Debye-Ang):
   XX=            -27.0858   YY=            -45.9364   ZZ=            -22.5135
   XY=             -2.7431   XZ=              0.0000   YZ=              0.0000

 45\CCSD(T)=-218.6308676\RMSD=5.676e-09\PG=CS [SG(N4)]\\@
 Normal termination of Gaussian 16 at Tue Feb 13 16:56:07 2024.
