 Gaussian 16, Revision A.03,
 Gaussian 16:  ES64L-G16RevA.03 25-Dec-2016

 -----------------------------------------------
 #p ROCCSD(T,MaxCyc=200)/cc-pVTZ SCF(MaxCyc=200)
 -----------------------------------------------

 ---------
 N2_N2_210
 ---------
 Symbolic Z-matrix:
 Charge = -1 Multiplicity = 2

                         Standard orientation:
 ---------------------------------------------------------------------
 Center     Atomic      Atomic             Coordinates (Angstroms)
 Number     Number       Type             X           Y           Z
 ---------------------------------------------------------------------
      1          7           0        0.000000    0.000000    2.990000
      2          7           0        0.000000    0.000000    1.900000
      3          7           0        0.000000    0.000000   -1.900000
      4          7           0        0.000000    0.000000   -2.990000
 ---------------------------------------------------------------------

 SCF Done:  E(ROHF) =  -217.821698636     A.U. after   11 cycles
 E2 =    -0.7695372567D+00 EUMP2 =    -0.21859123589260D+03
 CCSD(T)
 CCSD(T)= -0.21862246595D+03

 Unable to determine electronic state:  an orbital has unidentified symmetry.
 Alpha  occ. eigenvalues --  -15.41307 -15.41306 -15.40738 -15.40738  -1.22783
 Alpha  occ. eigenvalues --   -1.22771  -0.55144  -0.54704  -0.41647  -0.41302
 Alpha  occ. eigenvalues --   -0.39660  -0.39039  -0.37270  -0.37230   0.13055
 Alpha virt. eigenvalues --    0.24877   0.38681   0.39494   0.56124   0.65558
 Alpha virt. eigenvalues --    0.71981   0.75927   0.76229   0.77002   0.77262
 Alpha virt. eigenvalues --    0.88139   0.89164   0.90155   0.92790   0.94182

 Mulliken charges and spin densities:
               1          2
     1  N   -0.252176   0.241680
     2  N   -0.247824   0.258320
     3  N   -0.247824   0.258320
     4  N   -0.252176   0.241680
 Sum of Mulliken charges =  -1.00000   1.00000

 Dipole moment (field-independent basis, Debye):
    X=             -0.0000    Y=             -0.0000    Z=             -0.0000  Tot=              0.0000
 Quadrupole moment (field-independent basis, Debye-Ang):
   XX=            -22.4999   YY=            -24.3140   ZZ=            -59.7162
   XY=              0.0000   XZ=              0.0000   YZ=             -0.0000

 986\PMP2-0=-218.5912359\MP4SDQ=-218.587581\CCSD=-218.5841921\CCSD(T)=-
 Normal termination of Gaussian 16 at Tue Feb 13 17:47:13 2024.
