 Gaussian 16, Revision A.03,
 Gaussian 16:  ES64L-G16RevA.03 25-Dec-2016

 -----------------------------------------------
 #p ROCCSD(T,MaxCyc=200)/cc-pVTZ SCF(MaxCyc=200)
 -----------------------------------------------

 --------
 N2_N2_14
 --------
 Symbolic Z-matrix:
 Charge = -1 Multiplicity = 2

                         Standard orientation:
 ---------------------------------------------------------------------
 Center     Atomic      Atomic             Coordinates (Angstroms)
 Number     Number       Type             X           Y           Z
 ---------------------------------------------------------------------
      1          7           0       -0.817500   -0.852500    0.000000
      2          7           0        0.272500   -0.852500    0.000000
      3          7           0        0.272500    0.307500    0.000000
      4          7           0        0.272500    1.397500    0.000000
 ---------------------------------------------------------------------

 SCF Done:  E(ROHF) =  -217.480651320     A.U. after   19 cycles
 E2 =    -0.8041323477D+00 EUMP2 =    -0.21828478366779D+03
 CCSD(T)
 CCSD(T)= -0.21830800306D+03

 The electronic state is 2-A".
 Alpha  occ. eigenvalues --  -15.50251 -15.39002 -15.34597 -15.25947  -1.41325
 Alpha  occ. eigenvalues --   -1.18132  -0.83818  -0.56237  -0.55319  -0.41652
 Alpha  occ. eigenvalues --   -0.36090  -0.30778  -0.30251  -0.02671   0.01312
 Alpha virt. eigenvalues --    0.43477   0.44263   0.60049   0.63161   0.66268
 Alpha virt. eigenvalues --    0.74089   0.75577   0.78602   0.84643   0.86004
 Alpha virt. eigenvalues --    0.91231   0.92583   0.99915   1.00367   1.01169

 Mulliken charges and spin densities:
               1          2
     1  N   -0.757972   0.561502
     2  N    0.013725   0.075605
     3  N    0.181625   0.133113
     4  N   -0.437378   0.229780
 Sum of Mulliken charges =  -1.00000   1.00000

 Dipole moment (field-independent basis, Debye):
    X=              1.9813    Y=              0.3324    Z=              0.0000  Tot=              2.0090
 Quadrupole moment (field-independent basis, Debye-Ang):
   XX=            -28.3412   YY=            -34.9909   ZZ=            -22.7511
   XY=             -3.1866   XZ=              0.0000   YZ=              0.0000

 19\CCSD(T)=-218.3080031\RMSD=2.912e-09\PG=CS [SG(N4)]\\@
 Normal termination of Gaussian 16 at Tue Feb 13 12:43:48 2024.
