 Gaussian 16, Revision A.03,
 Gaussian 16:  ES64L-G16RevA.03 25-Dec-2016

 -----------------------------------------------
 #p ROCCSD(T,MaxCyc=200)/cc-pVTZ SCF(MaxCyc=200)
 -----------------------------------------------

 --------
 N2_N2_94
 --------
 Symbolic Z-matrix:
 Charge = -1 Multiplicity = 2

                         Standard orientation:
 ---------------------------------------------------------------------
 Center     Atomic      Atomic             Coordinates (Angstroms)
 Number     Number       Type             X           Y           Z
 ---------------------------------------------------------------------
      1          7           0        0.578060   -1.970560    0.000000
      2          7           0       -0.192687   -1.199813    0.000000
      3          7           0       -0.192687    1.040186   -0.000000
      4          7           0       -0.192687    2.130187   -0.000000
 ---------------------------------------------------------------------

 SCF Done:  E(ROHF) =  -217.815216875     A.U. after   20 cycles
 E2 =    -0.7702066820D+00 EUMP2 =    -0.21858542355734D+03
 CCSD(T)
 CCSD(T)= -0.21862047198D+03

 The electronic state is 2-A".
 Alpha  occ. eigenvalues --  -15.41855 -15.40848 -15.35360 -15.34024  -1.22965
 Alpha  occ. eigenvalues --   -1.17203  -0.57087  -0.49330  -0.40676  -0.40551
 Alpha  occ. eigenvalues --   -0.37438  -0.36788  -0.32912  -0.29305   0.10521
 Alpha virt. eigenvalues --    0.33302   0.39154   0.45387   0.63173   0.66943
 Alpha virt. eigenvalues --    0.74652   0.75688   0.81982   0.83223   0.86367
 Alpha virt. eigenvalues --    0.88215   0.89253   0.93168   1.03202   1.03346

 Mulliken charges and spin densities:
               1          2
     1  N   -0.328483   0.302201
     2  N   -0.290860   0.319339
     3  N   -0.163855   0.209846
     4  N   -0.216802   0.168614
 Sum of Mulliken charges =  -1.00000   1.00000

 Dipole moment (field-independent basis, Debye):
    X=             -0.3866    Y=              1.7004    Z=             -0.0000  Tot=              1.7438
 Quadrupole moment (field-independent basis, Debye-Ang):
   XX=            -24.6285   YY=            -41.8146   ZZ=            -24.4420
   XY=              3.5870   XZ=             -0.0000   YZ=              0.0000

 1532\CCSD=-218.581559\CCSD(T)=-218.620472\RMSD=9.603e-09\PG=CS [SG(N4)
 Normal termination of Gaussian 16 at Tue Feb 13 14:51:46 2024.
