 Gaussian 16, Revision A.03,
 Gaussian 16:  ES64L-G16RevA.03 25-Dec-2016

 -----------------------------------------------
 #p ROCCSD(T,MaxCyc=200)/cc-pVTZ SCF(MaxCyc=200)
 -----------------------------------------------

 ---------
 N2_N2_224
 ---------
 Symbolic Z-matrix:
 Charge = -1 Multiplicity = 2

                         Standard orientation:
 ---------------------------------------------------------------------
 Center     Atomic      Atomic             Coordinates (Angstroms)
 Number     Number       Type             X           Y           Z
 ---------------------------------------------------------------------
      1          7           0       -0.817500   -2.252500    0.000000
      2          7           0        0.272500   -2.252500    0.000000
      3          7           0        0.272500    1.707500    0.000000
      4          7           0        0.272500    2.797500    0.000000
 ---------------------------------------------------------------------

 SCF Done:  E(ROHF) =  -217.824162429     A.U. after   17 cycles
 E2 =    -0.7692032573D+00 EUMP2 =    -0.21859336568658D+03
 CCSD(T)
 CCSD(T)= -0.21862480432D+03

 The electronic state is 2-A'.
 Alpha  occ. eigenvalues --  -15.41591 -15.40963 -15.40685 -15.40340  -1.22967
 Alpha  occ. eigenvalues --   -1.22183  -0.55061  -0.54569  -0.41525  -0.40985
 Alpha  occ. eigenvalues --   -0.39536  -0.38928  -0.37429  -0.36712   0.12831
 Alpha virt. eigenvalues --    0.25578   0.38947   0.39462   0.59285   0.61445
 Alpha virt. eigenvalues --    0.71926   0.75945   0.76290   0.76613   0.77620
 Alpha virt. eigenvalues --    0.83168   0.89031   0.89535   0.94249   0.94492

 Mulliken charges and spin densities:
               1          2
     1  N   -0.263478   0.253985
     2  N   -0.246987   0.257082
     3  N   -0.233571   0.254150
     4  N   -0.255963   0.234784
 Sum of Mulliken charges =  -1.00000   1.00000

 Dipole moment (field-independent basis, Debye):
    X=              0.0478    Y=              0.1056    Z=              0.0000  Tot=              0.1159
 Quadrupole moment (field-independent basis, Debye-Ang):
   XX=            -26.9639   YY=            -52.3423   ZZ=            -22.4960
   XY=             -3.1488   XZ=              0.0000   YZ=              0.0000

 544\CCSD(T)=-218.6248043\RMSD=1.439e-09\PG=CS [SG(N4)]\\@
 Normal termination of Gaussian 16 at Tue Feb 13 18:10:09 2024.
