 Gaussian 16, Revision A.03,
 Gaussian 16:  ES64L-G16RevA.03 25-Dec-2016

 -----------------------------------------------
 #p ROCCSD(T,MaxCyc=200)/cc-pVTZ SCF(MaxCyc=200)
 -----------------------------------------------

 ---------
 N2_N2_202
 ---------
 Symbolic Z-matrix:
 Charge = -1 Multiplicity = 2

                         Standard orientation:
 ---------------------------------------------------------------------
 Center     Atomic      Atomic             Coordinates (Angstroms)
 Number     Number       Type             X           Y           Z
 ---------------------------------------------------------------------
      1          7           0        0.578060   -2.690560    0.000000
      2          7           0       -0.192687   -1.919813    0.000000
      3          7           0       -0.192687    1.760187   -0.000000
      4          7           0       -0.192687    2.850186   -0.000000
 ---------------------------------------------------------------------

 SCF Done:  E(ROHF) =  -217.822629093     A.U. after   16 cycles
 E2 =    -0.7694868011D+00 EUMP2 =    -0.21859211589441D+03
 CCSD(T)
 CCSD(T)= -0.21862350335D+03

 The electronic state is 2-A".
 Alpha  occ. eigenvalues --  -15.41437 -15.40855 -15.40838 -15.40268  -1.22859
 Alpha  occ. eigenvalues --   -1.22300  -0.55083  -0.54438  -0.41539  -0.41022
 Alpha  occ. eigenvalues --   -0.39590  -0.38836  -0.37323  -0.36718   0.12961
 Alpha virt. eigenvalues --    0.25321   0.38916   0.39511   0.58195   0.64461
 Alpha virt. eigenvalues --    0.72161   0.75743   0.75905   0.77359   0.77843
 Alpha virt. eigenvalues --    0.84609   0.89097   0.90175   0.90911   0.94583

 Mulliken charges and spin densities:
               1          2
     1  N   -0.265824   0.246579
     2  N   -0.241361   0.260713
     3  N   -0.241337   0.255189
     4  N   -0.251478   0.237519
 Sum of Mulliken charges =  -1.00000   1.00000

 Dipole moment (field-independent basis, Debye):
    X=             -0.0980    Y=              0.1130    Z=             -0.0000  Tot=              0.1496
 Quadrupole moment (field-independent basis, Debye-Ang):
   XX=            -24.2953   YY=            -54.6374   ZZ=            -24.3169
   XY=              3.9714   XZ=             -0.0000   YZ=              0.0000

 6183\CCSD=-218.5853419\CCSD(T)=-218.6235034\RMSD=4.439e-09\PG=CS [SG(N
 Normal termination of Gaussian 16 at Tue Feb 13 17:34:50 2024.
