 Gaussian 16, Revision A.03,
 Gaussian 16:  ES64L-G16RevA.03 25-Dec-2016

 -----------------------------------------------
 #p ROCCSD(T,MaxCyc=200)/cc-pVTZ SCF(MaxCyc=200)
 -----------------------------------------------

 ---------
 N2_N2_249
 ---------
 Symbolic Z-matrix:
 Charge = -1 Multiplicity = 2

                         Standard orientation:
 ---------------------------------------------------------------------
 Center     Atomic      Atomic             Coordinates (Angstroms)
 Number     Number       Type             X           Y           Z
 ---------------------------------------------------------------------
      1          7           0        0.000000    0.000000    3.250000
      2          7           0        0.000000    0.000000    2.160000
      3          7           0        0.000000    0.000000   -2.160000
      4          7           0        0.000000    0.000000   -3.250000
 ---------------------------------------------------------------------

 SCF Done:  E(ROHF) =  -217.820184438     A.U. after   11 cycles
 E2 =    -0.7699506945D+00 EUMP2 =    -0.21859013513208D+03
 CCSD(T)
 CCSD(T)= -0.21862074016D+03

 Unable to determine electronic state:  an orbital has unidentified symmetry.
 Alpha  occ. eigenvalues --  -15.41757 -15.41757 -15.41279 -15.41279  -1.23282
 Alpha  occ. eigenvalues --   -1.23276  -0.55575  -0.55383  -0.42140  -0.41901
 Alpha  occ. eigenvalues --   -0.40031  -0.39791  -0.37762  -0.37749   0.13215
 Alpha virt. eigenvalues --    0.23505   0.38405   0.38712   0.54956   0.65164
 Alpha virt. eigenvalues --    0.72642   0.75802   0.76097   0.76206   0.76458
 Alpha virt. eigenvalues --    0.83527   0.88746   0.89387   0.90666   0.92248

 Mulliken charges and spin densities:
               1          2
     1  N   -0.259043   0.243854
     2  N   -0.240957   0.256146
     3  N   -0.240957   0.256146
     4  N   -0.259043   0.243854
 Sum of Mulliken charges =  -1.00000   1.00000

 Dipole moment (field-independent basis, Debye):
    X=             -0.0000    Y=              0.0000    Z=             -0.0000  Tot=              0.0000
 Quadrupole moment (field-independent basis, Debye-Ang):
   XX=            -22.4886   YY=            -24.2737   ZZ=            -65.9992
   XY=              0.0000   XZ=              0.0000   YZ=             -0.0000

 Normal termination of Gaussian 16 at Tue Feb 13 18:53:27 2024.
