 Gaussian 16, Revision A.03,
 Gaussian 16:  ES64L-G16RevA.03 25-Dec-2016

 -----------------------------------------------
 #p ROCCSD(T,MaxCyc=200)/cc-pVTZ SCF(MaxCyc=200)
 -----------------------------------------------

 ---------
 N2_N2_293
 ---------
 Symbolic Z-matrix:
 Charge = -1 Multiplicity = 2

                         Standard orientation:
 ---------------------------------------------------------------------
 Center     Atomic      Atomic             Coordinates (Angstroms)
 Number     Number       Type             X           Y           Z
 ---------------------------------------------------------------------
      1          7           0       -0.817500   -2.712500    0.000000
      2          7           0        0.272500   -2.712500    0.000000
      3          7           0        0.272500    2.167500    0.000000
      4          7           0        0.272500    3.257500    0.000000
 ---------------------------------------------------------------------

 SCF Done:  E(ROHF) =  -217.820671002     A.U. after   15 cycles
 E2 =    -0.7699415519D+00 EUMP2 =    -0.21859061255400D+03
 CCSD(T)
 CCSD(T)= -0.21861960864D+03

 The electronic state is 2-A'.
 Alpha  occ. eigenvalues --  -15.42200 -15.41742 -15.41613 -15.41268  -1.23700
 Alpha  occ. eigenvalues --   -1.23169  -0.55892  -0.55539  -0.42379  -0.41971
 Alpha  occ. eigenvalues --   -0.40351  -0.39967  -0.38170  -0.37679   0.13166
 Alpha virt. eigenvalues --    0.23169   0.38159   0.38509   0.60155   0.60496
 Alpha virt. eigenvalues --    0.74159   0.75302   0.75668   0.75912   0.76339
 Alpha virt. eigenvalues --    0.77764   0.88457   0.89096   0.90801   0.91813

 Mulliken charges and spin densities:
               1          2
     1  N   -0.256597   0.252861
     2  N   -0.250486   0.254297
     3  N   -0.233416   0.251963
     4  N   -0.259501   0.240879
 Sum of Mulliken charges =  -1.00000   1.00000

 Dipole moment (field-independent basis, Debye):
    X=              0.0300    Y=              0.0902    Z=              0.0000  Tot=              0.0950
 Quadrupole moment (field-independent basis, Debye-Ang):
   XX=            -26.8753   YY=            -63.2519   ZZ=            -22.4802
   XY=             -3.7037   XZ=              0.0000   YZ=              0.0000

 5\CCSD(T)=-218.6196086\RMSD=3.355e-09\PG=CS [SG(N4)]\\@
 Normal termination of Gaussian 16 at Tue Feb 13 20:45:33 2024.
