 Gaussian 16, Revision A.03,
 Gaussian 16:  ES64L-G16RevA.03 25-Dec-2016

 -----------------------------------------------
 #p ROCCSD(T,MaxCyc=200)/cc-pVTZ SCF(MaxCyc=200)
 -----------------------------------------------

 ---------
 N2_N2_185
 ---------
 Symbolic Z-matrix:
 Charge = -1 Multiplicity = 2

                         Standard orientation:
 ---------------------------------------------------------------------
 Center     Atomic      Atomic             Coordinates (Angstroms)
 Number     Number       Type             X           Y           Z
 ---------------------------------------------------------------------
      1          7           0       -0.817500   -1.992500    0.000000
      2          7           0        0.272500   -1.992500    0.000000
      3          7           0        0.272500    1.447500    0.000000
      4          7           0        0.272500    2.537500    0.000000
 ---------------------------------------------------------------------

 SCF Done:  E(ROHF) =  -217.828459975     A.U. after   17 cycles
 E2 =    -0.7687528329D+00 EUMP2 =    -0.21859721280750D+03
 CCSD(T)
 CCSD(T)= -0.21862955995D+03

 The electronic state is 2-A'.
 Alpha  occ. eigenvalues --  -15.41361 -15.40516 -15.39853 -15.39506  -1.22575
 Alpha  occ. eigenvalues --   -1.21310  -0.54579  -0.53736  -0.40959  -0.40404
 Alpha  occ. eigenvalues --   -0.38945  -0.37865  -0.37027  -0.35862   0.12359
 Alpha virt. eigenvalues --    0.27675   0.39381   0.40292   0.60473   0.62717
 Alpha virt. eigenvalues --    0.71595   0.76029   0.76074   0.77513   0.78962
 Alpha virt. eigenvalues --    0.83709   0.88717   0.89577   0.94676   0.96297

 Mulliken charges and spin densities:
               1          2
     1  N   -0.275308   0.257073
     2  N   -0.243316   0.262170
     3  N   -0.233530   0.254955
     4  N   -0.247846   0.225802
 Sum of Mulliken charges =  -1.00000   1.00000

 Dipole moment (field-independent basis, Debye):
    X=              0.0922    Y=              0.2122    Z=              0.0000  Tot=              0.2314
 Quadrupole moment (field-independent basis, Debye-Ang):
   XX=            -27.0597   YY=            -47.0541   ZZ=            -22.5099
   XY=             -2.8221   XZ=              0.0000   YZ=              0.0000

 CCSD(T)=-218.6295599\RMSD=2.497e-09\PG=CS [SG(N4)]\\@
 Normal termination of Gaussian 16 at Tue Feb 13 17:09:57 2024.
