 Gaussian 16, Revision A.03,
 Gaussian 16:  ES64L-G16RevA.03 25-Dec-2016

 -----------------------------------------------
 #p ROCCSD(T,MaxCyc=200)/cc-pVTZ SCF(MaxCyc=200)
 -----------------------------------------------

 ---------
 N2_N2_191
 ---------
 Symbolic Z-matrix:
 Charge = -1 Multiplicity = 2

                         Standard orientation:
 ---------------------------------------------------------------------
 Center     Atomic      Atomic             Coordinates (Angstroms)
 Number     Number       Type             X           Y           Z
 ---------------------------------------------------------------------
      1          7           0       -0.817500   -2.032500    0.000000
      2          7           0        0.272500   -2.032500    0.000000
      3          7           0        0.272500    1.487500    0.000000
      4          7           0        0.272500    2.577500    0.000000
 ---------------------------------------------------------------------

 SCF Done:  E(ROHF) =  -217.827702464     A.U. after   17 cycles
 E2 =    -0.7688153361D+00 EUMP2 =    -0.21859651779987D+03
 CCSD(T)
 CCSD(T)= -0.21862871768D+03

 The electronic state is 2-A'.
 Alpha  occ. eigenvalues --  -15.41389 -15.40584 -15.40010 -15.39664  -1.22632
 Alpha  occ. eigenvalues --   -1.21471  -0.54649  -0.53887  -0.41049  -0.40476
 Alpha  occ. eigenvalues --   -0.39058  -0.38072  -0.37085  -0.36019   0.12451
 Alpha virt. eigenvalues --    0.27307   0.39318   0.40141   0.60167   0.62419
 Alpha virt. eigenvalues --    0.71522   0.76054   0.76093   0.77351   0.78722
 Alpha virt. eigenvalues --    0.83761   0.88773   0.89493   0.94592   0.96086

 Mulliken charges and spin densities:
               1          2
     1  N   -0.272889   0.256353
     2  N   -0.243843   0.261029
     3  N   -0.234136   0.255004
     4  N   -0.249132   0.227614
 Sum of Mulliken charges =  -1.00000   1.00000

 Dipole moment (field-independent basis, Debye):
    X=              0.0823    Y=              0.1870    Z=              0.0000  Tot=              0.2043
 Quadrupole moment (field-independent basis, Debye-Ang):
   XX=            -27.0430   YY=            -47.8218   ZZ=            -22.5076
   XY=             -2.8740   XZ=              0.0000   YZ=              0.0000

 872\CCSD(T)=-218.6287177\RMSD=4.118e-09\PG=CS [SG(N4)]\\@
 Normal termination of Gaussian 16 at Tue Feb 13 17:18:21 2024.
