 Gaussian 16, Revision A.03,
 Gaussian 16:  ES64L-G16RevA.03 25-Dec-2016

 -----------------------------------------------
 #p ROCCSD(T,MaxCyc=200)/cc-pVTZ SCF(MaxCyc=200)
 -----------------------------------------------

 ---------
 N2_N2_292
 ---------
 Symbolic Z-matrix:
 Charge = -1 Multiplicity = 2

                         Standard orientation:
 ---------------------------------------------------------------------
 Center     Atomic      Atomic             Coordinates (Angstroms)
 Number     Number       Type             X           Y           Z
 ---------------------------------------------------------------------
      1          7           0        0.578060   -3.290560    0.000000
      2          7           0       -0.192687   -2.519813   -0.000000
      3          7           0       -0.192687    2.360187   -0.000000
      4          7           0       -0.192687    3.450186   -0.000000
 ---------------------------------------------------------------------

 SCF Done:  E(ROHF) =  -217.819882090     A.U. after   15 cycles
 E2 =    -0.7702233605D+00 EUMP2 =    -0.21859010545035D+03
 CCSD(T)
 CCSD(T)= -0.21861793106D+03

 The electronic state is 2-A".
 Alpha  occ. eigenvalues --  -15.42288 -15.42008 -15.41857 -15.41600  -1.23820
 Alpha  occ. eigenvalues --   -1.23556  -0.56051  -0.55836  -0.42572  -0.42333
 Alpha  occ. eigenvalues --   -0.40494  -0.40282  -0.38293  -0.38018   0.13248
 Alpha virt. eigenvalues --    0.22509   0.38012   0.38230   0.58335   0.62075
 Alpha virt. eigenvalues --    0.73955   0.75487   0.75689   0.75725   0.75843
 Alpha virt. eigenvalues --    0.77087   0.88320   0.88615   0.90738   0.91175

 Mulliken charges and spin densities:
               1          2
     1  N   -0.264008   0.247803
     2  N   -0.239074   0.255302
     3  N   -0.236590   0.253302
     4  N   -0.260328   0.243593
 Sum of Mulliken charges =  -1.00000   1.00000

 Dipole moment (field-independent basis, Debye):
    X=             -0.0607    Y=              0.0503    Z=              0.0000  Tot=              0.0789
 Quadrupole moment (field-independent basis, Debye-Ang):
   XX=            -24.2460   YY=            -69.3909   ZZ=            -24.2512
   XY=              4.4632   XZ=             -0.0000   YZ=              0.0000

 53796\CCSD=-218.5848095\CCSD(T)=-218.6179311\RMSD=5.042e-09\PG=CS [SG(
 Normal termination of Gaussian 16 at Tue Feb 13 20:43:10 2024.
