 Gaussian 16, Revision A.03,
 Gaussian 16:  ES64L-G16RevA.03 25-Dec-2016

 -----------------------------------------------
 #p ROCCSD(T,MaxCyc=200)/cc-pVTZ SCF(MaxCyc=200)
 -----------------------------------------------

 -------
 N2_N2_3
 -------
 Symbolic Z-matrix:
 Charge = -1 Multiplicity = 2

                         Standard orientation:
 ---------------------------------------------------------------------
 Center     Atomic      Atomic             Coordinates (Angstroms)
 Number     Number       Type             X           Y           Z
 ---------------------------------------------------------------------
      1          7           0        0.000000    0.000000    1.610000
      2          7           0        0.000000    0.000000    0.520000
      3          7           0        0.000000    0.000000   -0.520000
      4          7           0        0.000000    0.000000   -1.610000
 ---------------------------------------------------------------------

 SCF Done:  E(ROHF) =  -217.538597587     A.U. after   13 cycles
 E2 =    -0.7946632525D+00 EUMP2 =    -0.21833326083922D+03
 CCSD(T)
 CCSD(T)= -0.21835174690D+03

 Unable to determine electronic state:  an orbital has unidentified symmetry.
 Alpha  occ. eigenvalues --  -15.46608 -15.46159 -15.29420 -15.29419  -1.37940
 Alpha  occ. eigenvalues --   -1.17149  -1.04021  -0.59502  -0.57646  -0.38984
 Alpha  occ. eigenvalues --   -0.37761  -0.31930  -0.29964  -0.02441  -0.01396
 Alpha virt. eigenvalues --    0.52177   0.54836   0.58113   0.65831   0.68347
 Alpha virt. eigenvalues --    0.73976   0.74425   0.74972   0.86250   0.87715
 Alpha virt. eigenvalues --    0.88734   0.94175   0.95409   1.05970   1.12056

 Mulliken charges and spin densities:
               1          2
     1  N   -0.340344   0.417070
     2  N   -0.159656   0.082930
     3  N   -0.159656   0.082930
     4  N   -0.340344   0.417070
 Sum of Mulliken charges =  -1.00000   1.00000

 Dipole moment (field-independent basis, Debye):
    X=             -0.0000    Y=             -0.0000    Z=              0.0000  Tot=              0.0000
 Quadrupole moment (field-independent basis, Debye-Ang):
   XX=            -22.3102   YY=            -23.8101   ZZ=            -46.3740
   XY=             -0.0000   XZ=              0.0000   YZ=             -0.0000

 76\PMP2-0=-218.3332608\MP4SDQ=-218.3161055\CCSD=-218.3119372\CCSD(T)=-
 Normal termination of Gaussian 16 at Tue Feb 13 12:23:38 2024.
