 Gaussian 16, Revision A.03,
 Gaussian 16:  ES64L-G16RevA.03 25-Dec-2016

 -----------------------------------------------
 #p ROCCSD(T,MaxCyc=200)/cc-pVTZ SCF(MaxCyc=200)
 -----------------------------------------------

 --------
 N2_N2_59
 --------
 Symbolic Z-matrix:
 Charge = -1 Multiplicity = 2

                         Standard orientation:
 ---------------------------------------------------------------------
 Center     Atomic      Atomic             Coordinates (Angstroms)
 Number     Number       Type             X           Y           Z
 ---------------------------------------------------------------------
      1          7           0       -0.817500   -1.152500    0.000000
      2          7           0        0.272500   -1.152500    0.000000
      3          7           0        0.272500    0.607500    0.000000
      4          7           0        0.272500    1.697500    0.000000
 ---------------------------------------------------------------------

 SCF Done:  E(ROHF) =  -217.715958452     A.U. after   18 cycles
 E2 =    -0.7801590891D+00 EUMP2 =    -0.21849611754082D+03
 CCSD(T)
 CCSD(T)= -0.21853148802D+03

 The electronic state is 2-A'.
 Alpha  occ. eigenvalues --  -15.41702 -15.37395 -15.30469 -15.29883  -1.22606
 Alpha  occ. eigenvalues --   -1.14047  -0.60416  -0.51604  -0.39381  -0.38215
 Alpha  occ. eigenvalues --   -0.37209  -0.35687  -0.28298  -0.18087   0.06426
 Alpha virt. eigenvalues --    0.39708   0.42465   0.46799   0.61600   0.66889
 Alpha virt. eigenvalues --    0.73201   0.76756   0.77984   0.84253   0.86252
 Alpha virt. eigenvalues --    0.93704   0.95353   0.96741   1.03441   1.03741

 Mulliken charges and spin densities:
               1          2
     1  N   -0.218679   0.046354
     2  N   -0.051606   0.127893
     3  N   -0.373969   0.418802
     4  N   -0.355746   0.406951
 Sum of Mulliken charges =  -1.00000   1.00000

 Dipole moment (field-independent basis, Debye):
    X=             -0.0316    Y=             -2.1991    Z=              0.0000  Tot=              2.1993
 Quadrupole moment (field-independent basis, Debye-Ang):
   XX=            -26.8148   YY=            -36.7193   ZZ=            -22.3450
   XY=             -2.3394   XZ=              0.0000   YZ=              0.0000

 4\CCSD(T)=-218.531488\RMSD=3.112e-09\PG=CS [SG(N4)]\\@
 Normal termination of Gaussian 16 at Tue Feb 13 13:59:51 2024.
