 Gaussian 16, Revision A.03,
 Gaussian 16:  ES64L-G16RevA.03 25-Dec-2016

 -----------------------------------------------
 #p ROCCSD(T,MaxCyc=200)/cc-pVTZ SCF(MaxCyc=200)
 -----------------------------------------------

 ---------
 N2_N2_150
 ---------
 Symbolic Z-matrix:
 Charge = -1 Multiplicity = 2

                         Standard orientation:
 ---------------------------------------------------------------------
 Center     Atomic      Atomic             Coordinates (Angstroms)
 Number     Number       Type             X           Y           Z
 ---------------------------------------------------------------------
      1          7           0        0.000000    0.000000    2.590000
      2          7           0        0.000000    0.000000    1.500000
      3          7           0        0.000000    0.000000   -1.500000
      4          7           0        0.000000    0.000000   -2.590000
 ---------------------------------------------------------------------

 SCF Done:  E(ROHF) =  -217.826298648     A.U. after   11 cycles
 E2 =    -0.7684670400D+00 EUMP2 =    -0.21859476568757D+03
 CCSD(T)
 CCSD(T)= -0.21862720291D+03

 Unable to determine electronic state:  an orbital has unidentified symmetry.
 Alpha  occ. eigenvalues --  -15.40408 -15.40407 -15.39569 -15.39569  -1.21784
 Alpha  occ. eigenvalues --   -1.21725  -0.54727  -0.52941  -0.40687  -0.39957
 Alpha  occ. eigenvalues --   -0.39417  -0.36836  -0.36330  -0.36112   0.12364
 Alpha virt. eigenvalues --    0.28190   0.38873   0.41468   0.64207   0.65052
 Alpha virt. eigenvalues --    0.74384   0.75611   0.75960   0.78859   0.79234
 Alpha virt. eigenvalues --    0.89378   0.89551   0.89964   0.92197   0.99611

 Mulliken charges and spin densities:
               1          2
     1  N   -0.250464   0.234307
     2  N   -0.249536   0.265693
     3  N   -0.249536   0.265693
     4  N   -0.250464   0.234307
 Sum of Mulliken charges =  -1.00000   1.00000

 Dipole moment (field-independent basis, Debye):
    X=             -0.0000    Y=             -0.0000    Z=              0.0000  Tot=              0.0000
 Quadrupole moment (field-independent basis, Debye-Ang):
   XX=            -22.5311   YY=            -24.4294   ZZ=            -51.3124
   XY=              0.0000   XZ=              0.0000   YZ=             -0.0000

 86\PMP2-0=-218.5947657\MP4SDQ=-218.5924467\CCSD=-218.5889037\CCSD(T)=-
 Normal termination of Gaussian 16 at Tue Feb 13 16:18:24 2024.
