 Gaussian 16, Revision A.03,
 Gaussian 16:  ES64L-G16RevA.03 25-Dec-2016

 -----------------------------------------------
 #p ROCCSD(T,MaxCyc=200)/cc-pVTZ SCF(MaxCyc=200)
 -----------------------------------------------

 ---------
 N2_N2_262
 ---------
 Symbolic Z-matrix:
 Charge = -1 Multiplicity = 2

                         Standard orientation:
 ---------------------------------------------------------------------
 Center     Atomic      Atomic             Coordinates (Angstroms)
 Number     Number       Type             X           Y           Z
 ---------------------------------------------------------------------
      1          7           0        0.578060   -3.090560    0.000000
      2          7           0       -0.192687   -2.319813    0.000000
      3          7           0       -0.192687    2.160186   -0.000000
      4          7           0       -0.192687    3.250187   -0.000000
 ---------------------------------------------------------------------

 SCF Done:  E(ROHF) =  -217.820271901     A.U. after   14 cycles
 E2 =    -0.7700144381D+00 EUMP2 =    -0.21859028633933D+03
 CCSD(T)
 CCSD(T)= -0.21861993458D+03

 The electronic state is 2-A".
 Alpha  occ. eigenvalues --  -15.42007 -15.41671 -15.41544 -15.41233  -1.23520
 Alpha  occ. eigenvalues --   -1.23202  -0.55739  -0.55463  -0.42264  -0.41971
 Alpha  occ. eigenvalues --   -0.40186  -0.39906  -0.37993  -0.37658   0.13207
 Alpha virt. eigenvalues --    0.23253   0.38313   0.38543   0.57370   0.63242
 Alpha virt. eigenvalues --    0.73257   0.75731   0.75891   0.76115   0.76299
 Alpha virt. eigenvalues --    0.79361   0.88580   0.89074   0.90774   0.91845

 Mulliken charges and spin densities:
               1          2
     1  N   -0.265424   0.247493
     2  N   -0.238319   0.256326
     3  N   -0.236236   0.253763
     4  N   -0.260021   0.242417
 Sum of Mulliken charges =  -1.00000   1.00000

 Dipole moment (field-independent basis, Debye):
    X=             -0.0704    Y=              0.0586    Z=              0.0000  Tot=              0.0916
 Quadrupole moment (field-independent basis, Debye-Ang):
   XX=            -24.2573   YY=            -64.0968   ZZ=            -24.2626
   XY=              4.2977   XZ=             -0.0000   YZ=              0.0000

 58799\CCSD=-218.5835336\CCSD(T)=-218.6199346\RMSD=8.503e-09\PG=CS [SG(
 Normal termination of Gaussian 16 at Tue Feb 13 19:20:26 2024.
