 Gaussian 16, Revision A.03,
 Gaussian 16:  ES64L-G16RevA.03 25-Dec-2016

 -----------------------------------------------
 #p ROCCSD(T,MaxCyc=200)/cc-pVTZ SCF(MaxCyc=200)
 -----------------------------------------------

 ---------
 N2_N2_289
 ---------
 Symbolic Z-matrix:
 Charge = -1 Multiplicity = 2

                         Standard orientation:
 ---------------------------------------------------------------------
 Center     Atomic      Atomic             Coordinates (Angstroms)
 Number     Number       Type             X           Y           Z
 ---------------------------------------------------------------------
      1          7           0        0.578060   -3.270560    0.000000
      2          7           0       -0.192687   -2.499813    0.000000
      3          7           0       -0.192687    2.340187   -0.000000
      4          7           0       -0.192687    3.430186   -0.000000
 ---------------------------------------------------------------------

 SCF Done:  E(ROHF) =  -217.819907064     A.U. after   15 cycles
 E2 =    -0.7702029004D+00 EUMP2 =    -0.21859010996410D+03
 CCSD(T)
 CCSD(T)= -0.21861808549D+03

 The electronic state is 2-A".
 Alpha  occ. eigenvalues --  -15.42260 -15.41976 -15.41827 -15.41565  -1.23791
 Alpha  occ. eigenvalues --   -1.23522  -0.56021  -0.55801  -0.42543  -0.42299
 Alpha  occ. eigenvalues --   -0.40464  -0.40247  -0.38265  -0.37984   0.13245
 Alpha virt. eigenvalues --    0.22578   0.38042   0.38260   0.58243   0.62196
 Alpha virt. eigenvalues --    0.73898   0.75512   0.75715   0.75760   0.75883
 Alpha virt. eigenvalues --    0.77263   0.88347   0.88653   0.90749   0.91228

 Mulliken charges and spin densities:
               1          2
     1  N   -0.264175   0.247776
     2  N   -0.238964   0.255390
     3  N   -0.236499   0.253342
     4  N   -0.260362   0.243492
 Sum of Mulliken charges =  -1.00000   1.00000

 Dipole moment (field-independent basis, Debye):
    X=             -0.0616    Y=              0.0510    Z=              0.0000  Tot=              0.0800
 Quadrupole moment (field-independent basis, Debye-Ang):
   XX=            -24.2470   YY=            -68.8444   ZZ=            -24.2521
   XY=              4.4466   XZ=             -0.0000   YZ=              0.0000

 4\CCSD=-218.58468\CCSD(T)=-218.6180855\RMSD=5.315e-09\PG=CS [SG(N4)]\\
 Normal termination of Gaussian 16 at Tue Feb 13 20:34:29 2024.
