 Gaussian 16, Revision A.03,
 Gaussian 16:  ES64L-G16RevA.03 25-Dec-2016

 -----------------------------------------------
 #p ROCCSD(T,MaxCyc=200)/cc-pVTZ SCF(MaxCyc=200)
 -----------------------------------------------

 ---------
 N2_N2_141
 ---------
 Symbolic Z-matrix:
 Charge = -1 Multiplicity = 2

                         Standard orientation:
 ---------------------------------------------------------------------
 Center     Atomic      Atomic             Coordinates (Angstroms)
 Number     Number       Type             X           Y           Z
 ---------------------------------------------------------------------
      1          7           0        0.000000    0.000000    2.530000
      2          7           0        0.000000    0.000000    1.440000
      3          7           0        0.000000    0.000000   -1.440000
      4          7           0        0.000000    0.000000   -2.530000
 ---------------------------------------------------------------------

 SCF Done:  E(ROHF) =  -217.826769665     A.U. after   11 cycles
 E2 =    -0.7683244701D+00 EUMP2 =    -0.21859509413539D+03
 CCSD(T)
 CCSD(T)= -0.21862770925D+03

 Unable to determine electronic state:  an orbital has unidentified symmetry.
 Alpha  occ. eigenvalues --  -15.40212 -15.40211 -15.39328 -15.39328  -1.21592
 Alpha  occ. eigenvalues --   -1.21514  -0.54763  -0.52541  -0.40519  -0.39682
 Alpha  occ. eigenvalues --   -0.39459  -0.36271  -0.36160  -0.35879   0.12181
 Alpha virt. eigenvalues --    0.28871   0.38879   0.41886   0.64025   0.65844
 Alpha virt. eigenvalues --    0.75583   0.75938   0.76343   0.79202   0.79614
 Alpha virt. eigenvalues --    0.89553   0.89697   0.90101   0.92337   1.00636

 Mulliken charges and spin densities:
               1          2
     1  N   -0.252587   0.232769
     2  N   -0.247413   0.267231
     3  N   -0.247413   0.267231
     4  N   -0.252587   0.232769
 Sum of Mulliken charges =  -1.00000   1.00000

 Dipole moment (field-independent basis, Debye):
    X=             -0.0000    Y=             -0.0000    Z=             -0.0000  Tot=              0.0000
 Quadrupole moment (field-independent basis, Debye-Ang):
   XX=            -24.4503   YY=            -22.5378   ZZ=            -50.2020
   XY=              0.0000   XZ=              0.0000   YZ=             -0.0000

 Normal termination of Gaussian 16 at Tue Feb 13 16:04:25 2024.
