 Gaussian 16, Revision A.03,
 Gaussian 16:  ES64L-G16RevA.03 25-Dec-2016

 -----------------------------------------------
 #p ROCCSD(T,MaxCyc=200)/cc-pVTZ SCF(MaxCyc=200)
 -----------------------------------------------

 ---------
 N2_N2_207
 ---------
 Symbolic Z-matrix:
 Charge = -1 Multiplicity = 2

                         Standard orientation:
 ---------------------------------------------------------------------
 Center     Atomic      Atomic             Coordinates (Angstroms)
 Number     Number       Type             X           Y           Z
 ---------------------------------------------------------------------
      1          7           0        0.000000    0.000000    2.970000
      2          7           0        0.000000    0.000000    1.880000
      3          7           0        0.000000    0.000000   -1.880000
      4          7           0        0.000000    0.000000   -2.970000
 ---------------------------------------------------------------------

 SCF Done:  E(ROHF) =  -217.821870527     A.U. after   11 cycles
 E2 =    -0.7694954011D+00 EUMP2 =    -0.21859136592766D+03
 CCSD(T)
 CCSD(T)= -0.21862265119D+03

 Unable to determine electronic state:  an orbital has unidentified symmetry.
 Alpha  occ. eigenvalues --  -15.41270 -15.41269 -15.40691 -15.40691  -1.22741
 Alpha  occ. eigenvalues --   -1.22728  -0.55112  -0.54642  -0.41606  -0.41249
 Alpha  occ. eigenvalues --   -0.39635  -0.38967  -0.37229  -0.37185   0.13036
 Alpha virt. eigenvalues --    0.25003   0.38697   0.39567   0.56412   0.65527
 Alpha virt. eigenvalues --    0.71956   0.75925   0.76228   0.77077   0.77338
 Alpha virt. eigenvalues --    0.88243   0.89199   0.90101   0.92738   0.94382

 Mulliken charges and spin densities:
               1          2
     1  N   -0.251663   0.241445
     2  N   -0.248337   0.258555
     3  N   -0.248337   0.258555
     4  N   -0.251663   0.241445
 Sum of Mulliken charges =  -1.00000   1.00000

 Dipole moment (field-independent basis, Debye):
    X=             -0.0000    Y=             -0.0000    Z=             -0.0000  Tot=              0.0000
 Quadrupole moment (field-independent basis, Debye-Ang):
   XX=            -24.3182   YY=            -22.5011   ZZ=            -59.2591
   XY=              0.0000   XZ=              0.0000   YZ=             -0.0000

 Normal termination of Gaussian 16 at Tue Feb 13 17:42:36 2024.
