 Gaussian 16, Revision A.03,
 Gaussian 16:  ES64L-G16RevA.03 25-Dec-2016

 -----------------------------------------------
 #p ROCCSD(T,MaxCyc=200)/cc-pVTZ SCF(MaxCyc=200)
 -----------------------------------------------

 ---------
 N2_N2_246
 ---------
 Symbolic Z-matrix:
 Charge = -1 Multiplicity = 2

                         Standard orientation:
 ---------------------------------------------------------------------
 Center     Atomic      Atomic             Coordinates (Angstroms)
 Number     Number       Type             X           Y           Z
 ---------------------------------------------------------------------
      1          7           0        0.000000    0.000000    3.230000
      2          7           0        0.000000    0.000000    2.140000
      3          7           0        0.000000    0.000000   -2.140000
      4          7           0        0.000000    0.000000   -3.230000
 ---------------------------------------------------------------------

 SCF Done:  E(ROHF) =  -217.820260239     A.U. after   11 cycles
 E2 =    -0.7699257399D+00 EUMP2 =    -0.21859018597925D+03
 CCSD(T)
 CCSD(T)= -0.21862083261D+03

 Unable to determine electronic state:  an orbital has unidentified symmetry.
 Alpha  occ. eigenvalues --  -15.41724 -15.41724 -15.41241 -15.41241  -1.23246
 Alpha  occ. eigenvalues --   -1.23240  -0.55542  -0.55338  -0.42105  -0.41859
 Alpha  occ. eigenvalues --   -0.40001  -0.39743  -0.37727  -0.37712   0.13207
 Alpha virt. eigenvalues --    0.23595   0.38429   0.38763   0.54892   0.65250
 Alpha virt. eigenvalues --    0.72574   0.75820   0.76115   0.76257   0.76509
 Alpha virt. eigenvalues --    0.84081   0.88776   0.89538   0.90644   0.92359

 Mulliken charges and spin densities:
               1          2
     1  N   -0.258626   0.243731
     2  N   -0.241374   0.256269
     3  N   -0.241374   0.256269
     4  N   -0.258626   0.243731
 Sum of Mulliken charges =  -1.00000   1.00000

 Dipole moment (field-independent basis, Debye):
    X=             -0.0000    Y=             -0.0000    Z=              0.0000  Tot=              0.0000
 Quadrupole moment (field-independent basis, Debye-Ang):
   XX=            -22.4893   YY=            -24.2759   ZZ=            -65.4933
   XY=              0.0000   XZ=              0.0000   YZ=             -0.0000

 602\PMP2-0=-218.590186\MP4SDQ=-218.5859459\CCSD=-218.5826114\CCSD(T)=-
 Normal termination of Gaussian 16 at Tue Feb 13 18:48:08 2024.
