 Gaussian 16, Revision A.03,
 Gaussian 16:  ES64L-G16RevA.03 25-Dec-2016

 -----------------------------------------------
 #p ROCCSD(T,MaxCyc=200)/cc-pVTZ SCF(MaxCyc=200)
 -----------------------------------------------

 ---------
 N2_N2_281
 ---------
 Symbolic Z-matrix:
 Charge = -1 Multiplicity = 2

                         Standard orientation:
 ---------------------------------------------------------------------
 Center     Atomic      Atomic             Coordinates (Angstroms)
 Number     Number       Type             X           Y           Z
 ---------------------------------------------------------------------
      1          7           0       -0.817500   -2.632500    0.000000
      2          7           0        0.272500   -2.632500    0.000000
      3          7           0        0.272500    2.087500    0.000000
      4          7           0        0.272500    3.177500    0.000000
 ---------------------------------------------------------------------

 SCF Done:  E(ROHF) =  -217.820976907     A.U. after   15 cycles
 E2 =    -0.7698274729D+00 EUMP2 =    -0.21859080437972D+03
 CCSD(T)
 CCSD(T)= -0.21862045093D+03

 The electronic state is 2-A'.
 Alpha  occ. eigenvalues --  -15.42091 -15.41616 -15.41469 -15.41124  -1.23580
 Alpha  occ. eigenvalues --   -1.23019  -0.55761  -0.55392  -0.42247  -0.41818
 Alpha  occ. eigenvalues --   -0.40221  -0.39817  -0.38049  -0.37532   0.13137
 Alpha virt. eigenvalues --    0.23502   0.38286   0.38653   0.60114   0.60618
 Alpha virt. eigenvalues --    0.73819   0.75434   0.75796   0.76019   0.76496
 Alpha virt. eigenvalues --    0.78607   0.88562   0.89337   0.90805   0.92186

 Mulliken charges and spin densities:
               1          2
     1  N   -0.257254   0.253002
     2  N   -0.250227   0.254607
     3  N   -0.232908   0.252166
     4  N   -0.259610   0.240225
 Sum of Mulliken charges =  -1.00000   1.00000

 Dipole moment (field-independent basis, Debye):
    X=              0.0318    Y=              0.0903    Z=              0.0000  Tot=              0.0957
 Quadrupole moment (field-independent basis, Debye-Ang):
   XX=            -26.8849   YY=            -61.2195   ZZ=            -22.4820
   XY=             -3.6072   XZ=              0.0000   YZ=              0.0000

 553\CCSD(T)=-218.6204509\RMSD=3.168e-09\PG=CS [SG(N4)]\\@
 Normal termination of Gaussian 16 at Tue Feb 13 20:05:16 2024.
