 Gaussian 16, Revision A.03,
 Gaussian 16:  ES64L-G16RevA.03 25-Dec-2016

 -----------------------------------------------
 #p ROCCSD(T,MaxCyc=200)/cc-pVTZ SCF(MaxCyc=200)
 -----------------------------------------------

 ---------
 N2_N2_153
 ---------
 Symbolic Z-matrix:
 Charge = -1 Multiplicity = 2

                         Standard orientation:
 ---------------------------------------------------------------------
 Center     Atomic      Atomic             Coordinates (Angstroms)
 Number     Number       Type             X           Y           Z
 ---------------------------------------------------------------------
      1          7           0        0.000000    0.000000    2.610000
      2          7           0        0.000000    0.000000    1.520000
      3          7           0        0.000000    0.000000   -1.520000
      4          7           0        0.000000    0.000000   -2.610000
 ---------------------------------------------------------------------

 SCF Done:  E(ROHF) =  -217.826086212     A.U. after   11 cycles
 E2 =    -0.7685216816D+00 EUMP2 =    -0.21859460789374D+03
 CCSD(T)
 CCSD(T)= -0.21862698417D+03

 Unable to determine electronic state:  an orbital has unidentified symmetry.
 Alpha  occ. eigenvalues --  -15.40467 -15.40467 -15.39644 -15.39644  -1.21845
 Alpha  occ. eigenvalues --   -1.21791  -0.54726  -0.53063  -0.40742  -0.40043
 Alpha  occ. eigenvalues --   -0.39410  -0.37004  -0.36384  -0.36184   0.12420
 Alpha virt. eigenvalues --    0.27976   0.38869   0.41338   0.64273   0.64684
 Alpha virt. eigenvalues --    0.73895   0.75627   0.75973   0.78748   0.79113
 Alpha virt. eigenvalues --    0.89322   0.89523   0.89920   0.92171   0.99277

 Mulliken charges and spin densities:
               1          2
     1  N   -0.249921   0.234805
     2  N   -0.250079   0.265195
     3  N   -0.250079   0.265195
     4  N   -0.249921   0.234805
 Sum of Mulliken charges =  -1.00000   1.00000

 Dipole moment (field-independent basis, Debye):
    X=             -0.0000    Y=              0.0000    Z=             -0.0000  Tot=              0.0000
 Quadrupole moment (field-independent basis, Debye-Ang):
   XX=            -22.5290   YY=            -24.4225   ZZ=            -51.6925
   XY=              0.0000   XZ=              0.0000   YZ=             -0.0000

 Normal termination of Gaussian 16 at Tue Feb 13 16:22:55 2024.
