 Gaussian 16, Revision A.03,
 Gaussian 16:  ES64L-G16RevA.03 25-Dec-2016

 -----------------------------------------------
 #p ROCCSD(T,MaxCyc=200)/cc-pVTZ SCF(MaxCyc=200)
 -----------------------------------------------

 --------
 N2_N2_18
 --------
 Symbolic Z-matrix:
 Charge = -1 Multiplicity = 2

                         Standard orientation:
 ---------------------------------------------------------------------
 Center     Atomic      Atomic             Coordinates (Angstroms)
 Number     Number       Type             X           Y           Z
 ---------------------------------------------------------------------
      1          7           0        0.000000    0.000000    1.710000
      2          7           0        0.000000    0.000000    0.620000
      3          7           0        0.000000    0.000000   -0.620000
      4          7           0        0.000000    0.000000   -1.710000
 ---------------------------------------------------------------------

 SCF Done:  E(ROHF) =  -217.552937164     A.U. after   11 cycles
 E2 =    -0.8335859970D+00 EUMP2 =    -0.21838652316120D+03
 CCSD(T)
 CCSD(T)= -0.21839873994D+03

 Unable to determine electronic state:  an orbital has unidentified symmetry.
 Alpha  occ. eigenvalues --  -15.48807 -15.48678 -15.32019 -15.32017  -1.28723
 Alpha  occ. eigenvalues --   -1.18693  -0.94549  -0.52653  -0.50718  -0.41004
 Alpha  occ. eigenvalues --   -0.38686  -0.34883  -0.32968   0.00111   0.01073
 Alpha virt. eigenvalues --    0.44705   0.47358   0.54851   0.65693   0.67105
 Alpha virt. eigenvalues --    0.72566   0.74795   0.75931   0.84923   0.85068
 Alpha virt. eigenvalues --    0.86389   0.94729   0.95940   1.04841   1.09998

 Mulliken charges and spin densities:
               1          2
     1  N   -0.337416   0.381582
     2  N   -0.162584   0.118418
     3  N   -0.162584   0.118418
     4  N   -0.337416   0.381582
 Sum of Mulliken charges =  -1.00000   1.00000

 Dipole moment (field-independent basis, Debye):
    X=             -0.0000    Y=              0.0000    Z=             -0.0000  Tot=              0.0000
 Quadrupole moment (field-independent basis, Debye-Ang):
   XX=            -22.7747   YY=            -24.3472   ZZ=            -46.4599
   XY=              0.0000   XZ=              0.0000   YZ=             -0.0000

 372\PMP2-0=-218.3865232\MP4SDQ=-218.357038\CCSD=-218.3514446\CCSD(T)=-
 Normal termination of Gaussian 16 at Tue Feb 13 12:50:15 2024.
