 Gaussian 16, Revision A.03,
 Gaussian 16:  ES64L-G16RevA.03 25-Dec-2016

 -----------------------------------------------
 #p ROCCSD(T,MaxCyc=200)/cc-pVTZ SCF(MaxCyc=200)
 -----------------------------------------------

 --------
 N2_N2_71
 --------
 Symbolic Z-matrix:
 Charge = -1 Multiplicity = 2

                         Standard orientation:
 ---------------------------------------------------------------------
 Center     Atomic      Atomic             Coordinates (Angstroms)
 Number     Number       Type             X           Y           Z
 ---------------------------------------------------------------------
      1          7           0       -0.817500   -1.232500    0.000000
      2          7           0        0.272500   -1.232500    0.000000
      3          7           0        0.272500    0.687500    0.000000
      4          7           0        0.272500    1.777500    0.000000
 ---------------------------------------------------------------------

 SCF Done:  E(ROHF) =  -217.766920887     A.U. after   19 cycles
 E2 =    -0.7758976798D+00 EUMP2 =    -0.21854281856700D+03
 CCSD(T)
 CCSD(T)= -0.21857802041D+03

 The electronic state is 2-A'.
 Alpha  occ. eigenvalues --  -15.42022 -15.39939 -15.30422 -15.29923  -1.22790
 Alpha  occ. eigenvalues --   -1.13953  -0.57463  -0.51798  -0.39767  -0.38711
 Alpha  occ. eigenvalues --   -0.37388  -0.35587  -0.28510  -0.22449   0.07543
 Alpha virt. eigenvalues --    0.39226   0.40143   0.46550   0.61188   0.67323
 Alpha virt. eigenvalues --    0.74038   0.76328   0.77454   0.83895   0.85923
 Alpha virt. eigenvalues --    0.93847   0.94826   0.96704   1.01847   1.03176

 Mulliken charges and spin densities:
               1          2
     1  N   -0.184549   0.071720
     2  N   -0.064623   0.129256
     3  N   -0.398050   0.400309
     4  N   -0.352778   0.398715
 Sum of Mulliken charges =  -1.00000   1.00000

 Dipole moment (field-independent basis, Debye):
    X=             -0.2565    Y=             -2.6540    Z=              0.0000  Tot=              2.6663
 Quadrupole moment (field-independent basis, Debye-Ang):
   XX=            -26.7233   YY=            -37.1094   ZZ=            -22.4381
   XY=             -2.2037   XZ=              0.0000   YZ=              0.0000

 79\CCSD(T)=-218.5780204\RMSD=3.087e-09\PG=CS [SG(N4)]\\@
 Normal termination of Gaussian 16 at Tue Feb 13 14:22:20 2024.
