 Gaussian 16, Revision A.03,
 Gaussian 16:  ES64L-G16RevA.03 25-Dec-2016

 -----------------------------------------------
 #p ROCCSD(T,MaxCyc=200)/cc-pVTZ SCF(MaxCyc=200)
 -----------------------------------------------

 ---------
 N2_N2_151
 ---------
 Symbolic Z-matrix:
 Charge = -1 Multiplicity = 2

                         Standard orientation:
 ---------------------------------------------------------------------
 Center     Atomic      Atomic             Coordinates (Angstroms)
 Number     Number       Type             X           Y           Z
 ---------------------------------------------------------------------
      1          7           0        0.578060   -2.350560   -0.000000
      2          7           0       -0.192687   -1.579813   -0.000000
      3          7           0       -0.192687    1.420186    0.000000
      4          7           0       -0.192687    2.510187    0.000000
 ---------------------------------------------------------------------

 SCF Done:  E(ROHF) =  -217.826700798     A.U. after   17 cycles
 E2 =    -0.7688913850D+00 EUMP2 =    -0.21859559218299D+03
 CCSD(T)
 CCSD(T)= -0.21862812096D+03

 The electronic state is 2-A".
 Alpha  occ. eigenvalues --  -15.40995 -15.40155 -15.39777 -15.38875  -1.22263
 Alpha  occ. eigenvalues --   -1.21092  -0.54760  -0.52906  -0.40809  -0.39766
 Alpha  occ. eigenvalues --   -0.39400  -0.37213  -0.36696  -0.35273   0.12359
 Alpha virt. eigenvalues --    0.28121   0.39458   0.41164   0.63111   0.64992
 Alpha virt. eigenvalues --    0.74813   0.75070   0.75513   0.79077   0.80233
 Alpha virt. eigenvalues --    0.86229   0.89597   0.90019   0.94050   0.98202

 Mulliken charges and spin densities:
               1          2
     1  N   -0.270040   0.246831
     2  N   -0.247860   0.270904
     3  N   -0.237017   0.255951
     4  N   -0.245084   0.226314
 Sum of Mulliken charges =  -1.00000   1.00000

 Dipole moment (field-independent basis, Debye):
    X=             -0.1418    Y=              0.2813    Z=              0.0000  Tot=              0.3150
 Quadrupole moment (field-independent basis, Debye-Ang):
   XX=            -24.3590   YY=            -47.8034   ZZ=            -24.4023
   XY=              3.7054   XZ=              0.0000   YZ=             -0.0000

 726\CCSD=-218.589781\CCSD(T)=-218.628121\RMSD=3.576e-09\PG=CS [SG(N4)]
 Normal termination of Gaussian 16 at Tue Feb 13 16:19:55 2024.
