 Gaussian 16, Revision A.03,
 Gaussian 16:  ES64L-G16RevA.03 25-Dec-2016

 -----------------------------------------------
 #p ROCCSD(T,MaxCyc=200)/cc-pVTZ SCF(MaxCyc=200)
 -----------------------------------------------

 ---------
 N2_N2_104
 ---------
 Symbolic Z-matrix:
 Charge = -1 Multiplicity = 2

                         Standard orientation:
 ---------------------------------------------------------------------
 Center     Atomic      Atomic             Coordinates (Angstroms)
 Number     Number       Type             X           Y           Z
 ---------------------------------------------------------------------
      1          7           0       -0.817500   -1.452500    0.000000
      2          7           0        0.272500   -1.452500    0.000000
      3          7           0        0.272500    0.907500    0.000000
      4          7           0        0.272500    1.997500    0.000000
 ---------------------------------------------------------------------

 SCF Done:  E(ROHF) =  -217.823905927     A.U. after   21 cycles
 E2 =    -0.7694781390D+00 EUMP2 =    -0.21859338406642D+03
 CCSD(T)
 CCSD(T)= -0.21862927311D+03

 The electronic state is 2-A'.
 Alpha  occ. eigenvalues --  -15.42403 -15.41116 -15.34055 -15.33607  -1.23222
 Alpha  occ. eigenvalues --   -1.16333  -0.55671  -0.49637  -0.42283  -0.40194
 Alpha  occ. eigenvalues --   -0.37670  -0.34630  -0.31007  -0.30948   0.09951
 Alpha virt. eigenvalues --    0.34780   0.39155   0.44526   0.63027   0.64300
 Alpha virt. eigenvalues --    0.75571   0.77546   0.79754   0.81323   0.83534
 Alpha virt. eigenvalues --    0.88900   0.91025   0.96091   0.96907   0.99745

 Mulliken charges and spin densities:
               1          2
     1  N   -0.372804   0.305254
     2  N   -0.278954   0.352933
     3  N   -0.132694   0.193339
     4  N   -0.215548   0.148474
 Sum of Mulliken charges =  -1.00000   1.00000

 Dipole moment (field-independent basis, Debye):
    X=              0.5632    Y=              1.8145    Z=              0.0000  Tot=              1.8999
 Quadrupole moment (field-independent basis, Debye-Ang):
   XX=            -27.3853   YY=            -38.7670   ZZ=            -22.5357
   XY=             -2.1687   XZ=              0.0000   YZ=              0.0000

 012\CCSD(T)=-218.6292731\RMSD=3.572e-09\PG=CS [SG(N4)]\\@
 Normal termination of Gaussian 16 at Tue Feb 13 15:05:52 2024.
