 Gaussian 16, Revision A.03,
 Gaussian 16:  ES64L-G16RevA.03 25-Dec-2016

 -----------------------------------------------
 #p ROCCSD(T,MaxCyc=200)/cc-pVTZ SCF(MaxCyc=200)
 -----------------------------------------------

 -------
 N2_N2_7
 -------
 Symbolic Z-matrix:
 Charge = -1 Multiplicity = 2

                         Standard orientation:
 ---------------------------------------------------------------------
 Center     Atomic      Atomic             Coordinates (Angstroms)
 Number     Number       Type             X           Y           Z
 ---------------------------------------------------------------------
      1          7           0        0.578060   -1.390560    0.000000
      2          7           0       -0.192687   -0.619813   -0.000000
      3          7           0       -0.192687    0.460186   -0.000000
      4          7           0       -0.192687    1.550187   -0.000000
 ---------------------------------------------------------------------

 SCF Done:  E(ROHF) =  -217.533582575     A.U. after   18 cycles
 E2 =    -0.7890684902D+00 EUMP2 =    -0.21832265106566D+03
 CCSD(T)
 CCSD(T)= -0.21835125539D+03

 The electronic state is 2-A".
 Alpha  occ. eigenvalues --  -15.47485 -15.41447 -15.36316 -15.24729  -1.36898
 Alpha  occ. eigenvalues --   -1.17967  -0.97971  -0.57960  -0.54701  -0.43757
 Alpha  occ. eigenvalues --   -0.35471  -0.32081  -0.28479  -0.02255  -0.01757
 Alpha virt. eigenvalues --    0.41816   0.49884   0.61722   0.63799   0.74026
 Alpha virt. eigenvalues --    0.74526   0.75816   0.76474   0.85487   0.89321
 Alpha virt. eigenvalues --    0.92604   0.94967   0.97538   1.00887   1.02218

 Mulliken charges and spin densities:
               1          2
     1  N   -0.858807   0.341511
     2  N    0.194727   0.045114
     3  N    0.116761   0.181443
     4  N   -0.452681   0.431932
 Sum of Mulliken charges =  -1.00000   1.00000

 Dipole moment (field-independent basis, Debye):
    X=             -1.7142    Y=              1.7360    Z=             -0.0000  Tot=              2.4397
 Quadrupole moment (field-independent basis, Debye-Ang):
   XX=            -26.1301   YY=            -41.2416   ZZ=            -22.4864
   XY=              4.3970   XZ=             -0.0000   YZ=              0.0000

 732\CCSD=-218.3097898\CCSD(T)=-218.3512554\RMSD=7.303e-09\PG=CS [SG(N4
 Normal termination of Gaussian 16 at Tue Feb 13 12:31:25 2024.
