 Gaussian 16, Revision A.03,
 Gaussian 16:  ES64L-G16RevA.03 25-Dec-2016

 -----------------------------------------------
 #p ROCCSD(T,MaxCyc=200)/cc-pVTZ SCF(MaxCyc=200)
 -----------------------------------------------

 ---------
 N2_N2_277
 ---------
 Symbolic Z-matrix:
 Charge = -1 Multiplicity = 2

                         Standard orientation:
 ---------------------------------------------------------------------
 Center     Atomic      Atomic             Coordinates (Angstroms)
 Number     Number       Type             X           Y           Z
 ---------------------------------------------------------------------
      1          7           0        0.578060   -3.190560    0.000000
      2          7           0       -0.192687   -2.419813    0.000000
      3          7           0       -0.192687    2.260187   -0.000000
      4          7           0       -0.192687    3.350186   -0.000000
 ---------------------------------------------------------------------

 SCF Done:  E(ROHF) =  -217.820034833     A.U. after   15 cycles
 E2 =    -0.7701200927D+00 EUMP2 =    -0.21859015492600D+03
 CCSD(T)
 CCSD(T)= -0.21861883769D+03

 The electronic state is 2-A".
 Alpha  occ. eigenvalues --  -15.42149 -15.41844 -15.41704 -15.41423  -1.23674
 Alpha  occ. eigenvalues --   -1.23385  -0.55898  -0.55657  -0.42422  -0.42159
 Alpha  occ. eigenvalues --   -0.40342  -0.40102  -0.38147  -0.37844   0.13232
 Alpha virt. eigenvalues --    0.22864   0.38161   0.38383   0.57851   0.62679
 Alpha virt. eigenvalues --    0.73635   0.75613   0.75805   0.75907   0.76055
 Alpha virt. eigenvalues --    0.78086   0.88452   0.88821   0.90780   0.91470

 Mulliken charges and spin densities:
               1          2
     1  N   -0.264798   0.247659
     2  N   -0.238585   0.255768
     3  N   -0.236235   0.253516
     4  N   -0.260383   0.243057
 Sum of Mulliken charges =  -1.00000   1.00000

 Dipole moment (field-independent basis, Debye):
    X=             -0.0653    Y=              0.0539    Z=             -0.0000  Tot=              0.0847
 Quadrupole moment (field-independent basis, Debye-Ang):
   XX=            -24.2512   YY=            -66.6964   ZZ=            -24.2560
   XY=              4.3802   XZ=             -0.0000   YZ=              0.0000

 809\CCSD=-218.5841177\CCSD(T)=-218.6188377\RMSD=6.417e-09\PG=CS [SG(N4
 Normal termination of Gaussian 16 at Tue Feb 13 19:53:44 2024.
