 Gaussian 16, Revision A.03,
 Gaussian 16:  ES64L-G16RevA.03 25-Dec-2016

 -----------------------------------------------
 #p ROCCSD(T,MaxCyc=200)/cc-pVTZ SCF(MaxCyc=200)
 -----------------------------------------------

 ---------
 N2_N2_124
 ---------
 Symbolic Z-matrix:
 Charge = -1 Multiplicity = 2

                         Standard orientation:
 ---------------------------------------------------------------------
 Center     Atomic      Atomic             Coordinates (Angstroms)
 Number     Number       Type             X           Y           Z
 ---------------------------------------------------------------------
      1          7           0        0.578060   -2.170560    0.000000
      2          7           0       -0.192687   -1.399813    0.000000
      3          7           0       -0.192687    1.240187   -0.000000
      4          7           0       -0.192687    2.330186   -0.000000
 ---------------------------------------------------------------------

 SCF Done:  E(ROHF) =  -217.827084125     A.U. after   17 cycles
 E2 =    -0.7690081754D+00 EUMP2 =    -0.21859609230017D+03
 CCSD(T)
 CCSD(T)= -0.21862928333D+03

 The electronic state is 2-A".
 Alpha  occ. eigenvalues --  -15.40851 -15.39878 -15.38677 -15.37536  -1.22053
 Alpha  occ. eigenvalues --   -1.19998  -0.55087  -0.51563  -0.40462  -0.39672
 Alpha  occ. eigenvalues --   -0.38749  -0.36569  -0.35741  -0.33604   0.11741
 Alpha virt. eigenvalues --    0.30216   0.39692   0.42529   0.64479   0.65078
 Alpha virt. eigenvalues --    0.74626   0.75473   0.79736   0.80237   0.82454
 Alpha virt. eigenvalues --    0.86854   0.89751   0.90963   0.97972   1.00565

 Mulliken charges and spin densities:
               1          2
     1  N   -0.281658   0.253131
     2  N   -0.253471   0.282090
     3  N   -0.218631   0.251162
     4  N   -0.246239   0.213617
 Sum of Mulliken charges =  -1.00000   1.00000

 Dipole moment (field-independent basis, Debye):
    X=             -0.1960    Y=              0.5450    Z=             -0.0000  Tot=              0.5792
 Quadrupole moment (field-independent basis, Debye-Ang):
   XX=            -24.4257   YY=            -44.7216   ZZ=            -24.4462
   XY=              3.5934   XZ=             -0.0000   YZ=              0.0000

 4186\CCSD=-218.5908124\CCSD(T)=-218.6292833\RMSD=6.582e-09\PG=CS [SG(N
 Normal termination of Gaussian 16 at Tue Feb 13 15:37:23 2024.
