 Gaussian 16, Revision A.03,
 Gaussian 16:  ES64L-G16RevA.03 25-Dec-2016

 -----------------------------------------------
 #p ROCCSD(T,MaxCyc=200)/cc-pVTZ SCF(MaxCyc=200)
 -----------------------------------------------

 --------
 N2_N2_61
 --------
 Symbolic Z-matrix:
 Charge = -1 Multiplicity = 2

                         Standard orientation:
 ---------------------------------------------------------------------
 Center     Atomic      Atomic             Coordinates (Angstroms)
 Number     Number       Type             X           Y           Z
 ---------------------------------------------------------------------
      1          7           0        0.578060   -1.750560    0.000000
      2          7           0       -0.192687   -0.979813    0.000000
      3          7           0       -0.192687    0.820186    0.000000
      4          7           0       -0.192687    1.910187    0.000000
 ---------------------------------------------------------------------

 SCF Done:  E(ROHF) =  -217.753521204     A.U. after   20 cycles
 E2 =    -0.7742029092D+00 EUMP2 =    -0.21852772411280D+03
 CCSD(T)
 CCSD(T)= -0.21856461174D+03

 The electronic state is 2-A".
 Alpha  occ. eigenvalues --  -15.43653 -15.39720 -15.30714 -15.30109  -1.23244
 Alpha  occ. eigenvalues --   -1.14304  -0.63324  -0.47745  -0.40303  -0.39731
 Alpha  occ. eigenvalues --   -0.38928  -0.35643  -0.28891  -0.20538   0.06077
 Alpha virt. eigenvalues --    0.39110   0.41630   0.46492   0.63979   0.67343
 Alpha virt. eigenvalues --    0.76571   0.77068   0.80145   0.84437   0.86179
 Alpha virt. eigenvalues --    0.90739   0.93194   0.95613   1.04079   1.05069

 Mulliken charges and spin densities:
               1          2
     1  N   -0.238356   0.070173
     2  N   -0.005461   0.072180
     3  N   -0.432827   0.405227
     4  N   -0.323356   0.452420
 Sum of Mulliken charges =  -1.00000   1.00000

 Dipole moment (field-independent basis, Debye):
    X=              0.0603    Y=             -2.7258    Z=             -0.0000  Tot=              2.7265
 Quadrupole moment (field-independent basis, Debye-Ang):
   XX=            -24.3253   YY=            -40.3516   ZZ=            -24.0903
   XY=              3.0079   XZ=             -0.0000   YZ=             -0.0000

 7583\CCSD=-218.5239578\CCSD(T)=-218.5646117\RMSD=6.078e-10\PG=CS [SG(N
 Normal termination of Gaussian 16 at Tue Feb 13 14:04:14 2024.
