 Gaussian 16, Revision A.03,
 Gaussian 16:  ES64L-G16RevA.03 25-Dec-2016

 -----------------------------------------------
 #p ROCCSD(T,MaxCyc=200)/cc-pVTZ SCF(MaxCyc=200)
 -----------------------------------------------

 ---------
 N2_N2_266
 ---------
 Symbolic Z-matrix:
 Charge = -1 Multiplicity = 2

                         Standard orientation:
 ---------------------------------------------------------------------
 Center     Atomic      Atomic             Coordinates (Angstroms)
 Number     Number       Type             X           Y           Z
 ---------------------------------------------------------------------
      1          7           0       -0.817500   -2.532500    0.000000
      2          7           0        0.272500   -2.532500    0.000000
      3          7           0        0.272500    1.987500    0.000000
      4          7           0        0.272500    3.077500    0.000000
 ---------------------------------------------------------------------

 SCF Done:  E(ROHF) =  -217.821504881     A.U. after   15 cycles
 E2 =    -0.7696754513D+00 EUMP2 =    -0.21859118033192D+03
 CCSD(T)
 CCSD(T)= -0.21862150963D+03

 The electronic state is 2-A'.
 Alpha  occ. eigenvalues --  -15.41953 -15.41452 -15.41283 -15.40938  -1.23423
 Alpha  occ. eigenvalues --   -1.22824  -0.55588  -0.55200  -0.42072  -0.41616
 Alpha  occ. eigenvalues --   -0.40050  -0.39619  -0.37892  -0.37340   0.13087
 Alpha virt. eigenvalues --    0.23962   0.38453   0.38841   0.59941   0.60791
 Alpha virt. eigenvalues --    0.73310   0.75596   0.75971   0.76141   0.76720
 Alpha virt. eigenvalues --    0.79868   0.88689   0.89703   0.90865   0.92788

 Mulliken charges and spin densities:
               1          2
     1  N   -0.258254   0.253166
     2  N   -0.249728   0.255039
     3  N   -0.232506   0.252534
     4  N   -0.259511   0.239261
 Sum of Mulliken charges =  -1.00000   1.00000

 Dipole moment (field-independent basis, Debye):
    X=              0.0341    Y=              0.0896    Z=              0.0000  Tot=              0.0959
 Quadrupole moment (field-independent basis, Debye-Ang):
   XX=            -26.8997   YY=            -58.7590   ZZ=            -22.4848
   XY=             -3.4868   XZ=              0.0000   YZ=              0.0000

 172\CCSD(T)=-218.6215096\RMSD=4.200e-09\PG=CS [SG(N4)]\\@
 Normal termination of Gaussian 16 at Tue Feb 13 19:29:02 2024.
