 Gaussian 16, Revision A.03,
 Gaussian 16:  ES64L-G16RevA.03 25-Dec-2016

 -----------------------------------------------
 #p ROCCSD(T,MaxCyc=200)/cc-pVTZ SCF(MaxCyc=200)
 -----------------------------------------------

 ---------
 N2_N2_254
 ---------
 Symbolic Z-matrix:
 Charge = -1 Multiplicity = 2

                         Standard orientation:
 ---------------------------------------------------------------------
 Center     Atomic      Atomic             Coordinates (Angstroms)
 Number     Number       Type             X           Y           Z
 ---------------------------------------------------------------------
      1          7           0       -0.817500   -2.452500    0.000000
      2          7           0        0.272500   -2.452500    0.000000
      3          7           0        0.272500    1.907500    0.000000
      4          7           0        0.272500    2.997500    0.000000
 ---------------------------------------------------------------------

 SCF Done:  E(ROHF) =  -217.822069200     A.U. after   15 cycles
 E2 =    -0.7695469324D+00 EUMP2 =    -0.21859161613228D+03
 CCSD(T)
 CCSD(T)= -0.21862234237D+03

 The electronic state is 2-A'.
 Alpha  occ. eigenvalues --  -15.41843 -15.41315 -15.41128 -15.40783  -1.23294
 Alpha  occ. eigenvalues --   -1.22658  -0.55442  -0.55036  -0.41924  -0.41447
 Alpha  occ. eigenvalues --   -0.39907  -0.39448  -0.37761  -0.37177   0.13033
 Alpha virt. eigenvalues --    0.24369   0.38592   0.39001   0.59722   0.60948
 Alpha virt. eigenvalues --    0.72876   0.75717   0.76128   0.76219   0.76929
 Alpha virt. eigenvalues --    0.80966   0.88789   0.89899   0.91217   0.93404

 Mulliken charges and spin densities:
               1          2
     1  N   -0.259279   0.253306
     2  N   -0.249156   0.255452
     3  N   -0.232461   0.252926
     4  N   -0.259104   0.238316
 Sum of Mulliken charges =  -1.00000   1.00000

 Dipole moment (field-independent basis, Debye):
    X=              0.0364    Y=              0.0896    Z=              0.0000  Tot=              0.0967
 Quadrupole moment (field-independent basis, Debye-Ang):
   XX=            -26.9142   YY=            -56.8541   ZZ=            -22.4875
   XY=             -3.3905   XZ=              0.0000   YZ=              0.0000

 45\CCSD(T)=-218.6223424\RMSD=6.216e-09\PG=CS [SG(N4)]\\@
 Normal termination of Gaussian 16 at Tue Feb 13 19:04:30 2024.
