 Gaussian 16, Revision A.03,
 Gaussian 16:  ES64L-G16RevA.03 25-Dec-2016

 -----------------------------------------------
 #p ROCCSD(T,MaxCyc=200)/cc-pVTZ SCF(MaxCyc=200)
 -----------------------------------------------

 ---------
 N2_N2_265
 ---------
 Symbolic Z-matrix:
 Charge = -1 Multiplicity = 2

                         Standard orientation:
 ---------------------------------------------------------------------
 Center     Atomic      Atomic             Coordinates (Angstroms)
 Number     Number       Type             X           Y           Z
 ---------------------------------------------------------------------
      1          7           0        0.578060   -3.110560   -0.000000
      2          7           0       -0.192687   -2.339814   -0.000000
      3          7           0       -0.192687    2.180187    0.000000
      4          7           0       -0.192687    3.270186    0.000000
 ---------------------------------------------------------------------

 SCF Done:  E(ROHF) =  -217.820216405     A.U. after   15 cycles
 E2 =    -0.7700355914D+00 EUMP2 =    -0.21859025199596D+03
 CCSD(T)
 CCSD(T)= -0.21861972003D+03

 The electronic state is 2-A".
 Alpha  occ. eigenvalues --  -15.42035 -15.41706 -15.41577 -15.41272  -1.23552
 Alpha  occ. eigenvalues --   -1.23240  -0.55771  -0.55503  -0.42296  -0.42010
 Alpha  occ. eigenvalues --   -0.40217  -0.39947  -0.38024  -0.37697   0.13213
 Alpha virt. eigenvalues --    0.23172   0.38283   0.38510   0.57460   0.63136
 Alpha virt. eigenvalues --    0.73335   0.75709   0.75876   0.76071   0.76247
 Alpha virt. eigenvalues --    0.79086   0.88555   0.89018   0.90779   0.91762

 Mulliken charges and spin densities:
               1          2
     1  N   -0.265315   0.247527
     2  N   -0.238346   0.256203
     3  N   -0.236200   0.253712
     4  N   -0.260138   0.242557
 Sum of Mulliken charges =  -1.00000   1.00000

 Dipole moment (field-independent basis, Debye):
    X=             -0.0693    Y=              0.0574    Z=              0.0000  Tot=              0.0900
 Quadrupole moment (field-independent basis, Debye-Ang):
   XX=            -24.2560   YY=            -64.6092   ZZ=            -24.2611
   XY=              4.3141   XZ=              0.0000   YZ=             -0.0000

 107\CCSD=-218.5836186\CCSD(T)=-218.61972\RMSD=5.838e-09\PG=CS [SG(N4)]
 Normal termination of Gaussian 16 at Tue Feb 13 19:26:50 2024.
