 Gaussian 16, Revision A.03,
 Gaussian 16:  ES64L-G16RevA.03 25-Dec-2016

 -----------------------------------------------
 #p ROCCSD(T,MaxCyc=200)/cc-pVTZ SCF(MaxCyc=200)
 -----------------------------------------------

 -------
 N2_N2_4
 -------
 Symbolic Z-matrix:
 Charge = -1 Multiplicity = 2

                         Standard orientation:
 ---------------------------------------------------------------------
 Center     Atomic      Atomic             Coordinates (Angstroms)
 Number     Number       Type             X           Y           Z
 ---------------------------------------------------------------------
      1          7           0        0.578060   -1.370560    0.000000
      2          7           0       -0.192687   -0.599813    0.000000
      3          7           0       -0.192687    0.440187   -0.000000
      4          7           0       -0.192687    1.530186   -0.000000
 ---------------------------------------------------------------------

 SCF Done:  E(ROHF) =  -217.501882475     A.U. after   19 cycles
 E2 =    -0.7905598437D+00 EUMP2 =    -0.21829244231828D+03
 CCSD(T)
 CCSD(T)= -0.21831646020D+03

 The electronic state is 2-A".
 Alpha  occ. eigenvalues --  -15.48341 -15.41150 -15.35306 -15.24634  -1.39571
 Alpha  occ. eigenvalues --   -1.17971  -0.99875  -0.59620  -0.56619  -0.42816
 Alpha  occ. eigenvalues --   -0.35711  -0.31598  -0.27980  -0.02570  -0.01936
 Alpha virt. eigenvalues --    0.42385   0.50877   0.61935   0.64007   0.74204
 Alpha virt. eigenvalues --    0.74297   0.75343   0.76196   0.85699   0.89848
 Alpha virt. eigenvalues --    0.92219   0.94192   0.97382   1.01008   1.04038

 Mulliken charges and spin densities:
               1          2
     1  N   -0.884825   0.459629
     2  N    0.234638   0.046253
     3  N    0.131622   0.148738
     4  N   -0.481435   0.345379
 Sum of Mulliken charges =  -1.00000   1.00000

 Dipole moment (field-independent basis, Debye):
    X=             -1.8498    Y=              1.5526    Z=              0.0000  Tot=              2.4150
 Quadrupole moment (field-independent basis, Debye-Ang):
   XX=            -26.0828   YY=            -41.3015   ZZ=            -22.4083
   XY=              4.5268   XZ=             -0.0000   YZ=              0.0000

 771\CCSD=-218.2757093\CCSD(T)=-218.3164602\RMSD=2.498e-09\PG=CS [SG(N4
 Normal termination of Gaussian 16 at Tue Feb 13 12:25:37 2024.
