 Gaussian 16, Revision A.03,
 Gaussian 16:  ES64L-G16RevA.03 25-Dec-2016

 -----------------------------------------------
 #p ROCCSD(T,MaxCyc=200)/cc-pVTZ SCF(MaxCyc=200)
 -----------------------------------------------

 ---------
 N2_N2_136
 ---------
 Symbolic Z-matrix:
 Charge = -1 Multiplicity = 2

                         Standard orientation:
 ---------------------------------------------------------------------
 Center     Atomic      Atomic             Coordinates (Angstroms)
 Number     Number       Type             X           Y           Z
 ---------------------------------------------------------------------
      1          7           0        0.578060   -2.250560   -0.000000
      2          7           0       -0.192687   -1.479813   -0.000000
      3          7           0       -0.192687    1.320187    0.000000
      4          7           0       -0.192687    2.410186    0.000000
 ---------------------------------------------------------------------

 SCF Done:  E(ROHF) =  -217.827441978     A.U. after   17 cycles
 E2 =    -0.7688596487D+00 EUMP2 =    -0.21859630162615D+03
 CCSD(T)
 CCSD(T)= -0.21862918790D+03

 The electronic state is 2-A".
 Alpha  occ. eigenvalues --  -15.40892 -15.39972 -15.39255 -15.38223  -1.22117
 Alpha  occ. eigenvalues --   -1.20554  -0.54856  -0.52224  -0.40600  -0.39502
 Alpha  occ. eigenvalues --   -0.39247  -0.36690  -0.36360  -0.34493   0.12052
 Alpha virt. eigenvalues --    0.29220   0.39607   0.41857   0.64105   0.64992
 Alpha virt. eigenvalues --    0.74698   0.75445   0.77576   0.79698   0.81271
 Alpha virt. eigenvalues --    0.86562   0.89715   0.90424   0.95868   0.99483

 Mulliken charges and spin densities:
               1          2
     1  N   -0.275055   0.248981
     2  N   -0.250204   0.276251
     3  N   -0.228394   0.254449
     4  N   -0.246348   0.220319
 Sum of Mulliken charges =  -1.00000   1.00000

 Dipole moment (field-independent basis, Debye):
    X=             -0.1665    Y=              0.3966    Z=              0.0000  Tot=              0.4301
 Quadrupole moment (field-independent basis, Debye-Ang):
   XX=            -24.3908   YY=            -46.0377   ZZ=            -24.4287
   XY=              3.6379   XZ=              0.0000   YZ=             -0.0000

 869\CCSD=-218.5907898\CCSD(T)=-218.6291879\RMSD=4.175e-09\PG=CS [SG(N4
 Normal termination of Gaussian 16 at Tue Feb 13 15:55:28 2024.
