 Gaussian 16, Revision A.03,
 Gaussian 16:  ES64L-G16RevA.03 25-Dec-2016

 -----------------------------------------------
 #p ROCCSD(T,MaxCyc=200)/cc-pVTZ SCF(MaxCyc=200)
 -----------------------------------------------

 ---------
 N2_N2_178
 ---------
 Symbolic Z-matrix:
 Charge = -1 Multiplicity = 2

                         Standard orientation:
 ---------------------------------------------------------------------
 Center     Atomic      Atomic             Coordinates (Angstroms)
 Number     Number       Type             X           Y           Z
 ---------------------------------------------------------------------
      1          7           0        0.578060   -2.530560    0.000000
      2          7           0       -0.192687   -1.759813   -0.000000
      3          7           0       -0.192687    1.600187   -0.000000
      4          7           0       -0.192687    2.690186   -0.000000
 ---------------------------------------------------------------------

 SCF Done:  E(ROHF) =  -217.824428247     A.U. after   17 cycles
 E2 =    -0.7691918981D+00 EUMP2 =    -0.21859362014463D+03
 CCSD(T)
 CCSD(T)= -0.21862552714D+03

 The electronic state is 2-A".
 Alpha  occ. eigenvalues --  -15.41222 -15.40524 -15.40428 -15.39719  -1.22577
 Alpha  occ. eigenvalues --   -1.21812  -0.54864  -0.53833  -0.41205  -0.40505
 Alpha  occ. eigenvalues --   -0.39430  -0.38188  -0.37035  -0.36176   0.12745
 Alpha virt. eigenvalues --    0.26481   0.39167   0.40176   0.60463   0.64685
 Alpha virt. eigenvalues --    0.72559   0.75379   0.75755   0.78090   0.78819
 Alpha virt. eigenvalues --    0.85570   0.89329   0.89899   0.92070   0.96242

 Mulliken charges and spin densities:
               1          2
     1  N   -0.266318   0.246213
     2  N   -0.244349   0.264379
     3  N   -0.242698   0.255910
     4  N   -0.246635   0.233497
 Sum of Mulliken charges =  -1.00000   1.00000

 Dipole moment (field-independent basis, Debye):
    X=             -0.1143    Y=              0.1674    Z=             -0.0000  Tot=              0.2027
 Quadrupole moment (field-independent basis, Debye-Ang):
   XX=            -24.3198   YY=            -51.2751   ZZ=            -24.3538
   XY=              3.8428   XZ=              0.0000   YZ=              0.0000

 06111\CCSD=-218.5872681\CCSD(T)=-218.6255271\RMSD=2.787e-09\PG=CS [SG(
 Normal termination of Gaussian 16 at Tue Feb 13 16:58:56 2024.
