 Gaussian 16, Revision A.03,
 Gaussian 16:  ES64L-G16RevA.03 25-Dec-2016

 -----------------------------------------------
 #p ROCCSD(T,MaxCyc=200)/cc-pVTZ SCF(MaxCyc=200)
 -----------------------------------------------

 ---------
 N2_N2_130
 ---------
 Symbolic Z-matrix:
 Charge = -1 Multiplicity = 2

                         Standard orientation:
 ---------------------------------------------------------------------
 Center     Atomic      Atomic             Coordinates (Angstroms)
 Number     Number       Type             X           Y           Z
 ---------------------------------------------------------------------
      1          7           0        0.578060   -2.210560    0.000000
      2          7           0       -0.192687   -1.439813    0.000000
      3          7           0       -0.192687    1.280186   -0.000000
      4          7           0       -0.192687    2.370187   -0.000000
 ---------------------------------------------------------------------

 SCF Done:  E(ROHF) =  -217.827417121     A.U. after   17 cycles
 E2 =    -0.7689089509D+00 EUMP2 =    -0.21859632607221D+03
 CCSD(T)
 CCSD(T)= -0.21862936070D+03

 The electronic state is 2-A".
 Alpha  occ. eigenvalues --  -15.40864 -15.39915 -15.38989 -15.37903  -1.22076
 Alpha  occ. eigenvalues --   -1.20294  -0.54949  -0.51908  -0.40526  -0.39576
 Alpha  occ. eigenvalues --   -0.39009  -0.36607  -0.36078  -0.34085   0.11905
 Alpha virt. eigenvalues --    0.29704   0.39656   0.42177   0.64379   0.64976
 Alpha virt. eigenvalues --    0.74652   0.75449   0.78694   0.79962   0.81803
 Alpha virt. eigenvalues --    0.86703   0.89743   0.90669   0.96836   1.00019

 Mulliken charges and spin densities:
               1          2
     1  N   -0.277987   0.250672
     2  N   -0.251591   0.278944
     3  N   -0.223819   0.253134
     4  N   -0.246603   0.217249
 Sum of Mulliken charges =  -1.00000   1.00000

 Dipole moment (field-independent basis, Debye):
    X=             -0.1798    Y=              0.4624    Z=             -0.0000  Tot=              0.4961
 Quadrupole moment (field-independent basis, Debye-Ang):
   XX=            -24.4069   YY=            -45.3684   ZZ=            -24.4380
   XY=              3.6142   XZ=             -0.0000   YZ=              0.0000

 204\CCSD=-218.5909302\CCSD(T)=-218.6293607\RMSD=5.062e-09\PG=CS [SG(N4
 Normal termination of Gaussian 16 at Tue Feb 13 15:46:20 2024.
