 Gaussian 16, Revision A.03,
 Gaussian 16:  ES64L-G16RevA.03 25-Dec-2016

 -----------------------------------------------
 #p ROCCSD(T,MaxCyc=200)/cc-pVTZ SCF(MaxCyc=200)
 -----------------------------------------------

 ---------
 N2_N2_233
 ---------
 Symbolic Z-matrix:
 Charge = -1 Multiplicity = 2

                         Standard orientation:
 ---------------------------------------------------------------------
 Center     Atomic      Atomic             Coordinates (Angstroms)
 Number     Number       Type             X           Y           Z
 ---------------------------------------------------------------------
      1          7           0       -0.817500   -2.312500    0.000000
      2          7           0        0.272500   -2.312500    0.000000
      3          7           0        0.272500    1.767500    0.000000
      4          7           0        0.272500    2.857500    0.000000
 ---------------------------------------------------------------------

 SCF Done:  E(ROHF) =  -217.823422889     A.U. after   16 cycles
 E2 =    -0.7693092592D+00 EUMP2 =    -0.21859273214791D+03
 CCSD(T)
 CCSD(T)= -0.21862397283D+03

 The electronic state is 2-A'.
 Alpha  occ. eigenvalues --  -15.41662 -15.41069 -15.40830 -15.40485  -1.23064
 Alpha  occ. eigenvalues --   -1.22338  -0.55177  -0.54721  -0.41648  -0.41129
 Alpha  occ. eigenvalues --   -0.39650  -0.39103  -0.37528  -0.36863   0.12903
 Alpha virt. eigenvalues --    0.25184   0.38841   0.39312   0.59345   0.61276
 Alpha virt. eigenvalues --    0.72173   0.75891   0.76292   0.76451   0.77384
 Alpha virt. eigenvalues --    0.82665   0.88963   0.89708   0.93220   0.94171

 Mulliken charges and spin densities:
               1          2
     1  N   -0.261890   0.253693
     2  N   -0.247742   0.256464
     3  N   -0.233090   0.253771
     4  N   -0.257277   0.236071
 Sum of Mulliken charges =  -1.00000   1.00000

 Dipole moment (field-independent basis, Debye):
    X=              0.0430    Y=              0.0969    Z=              0.0000  Tot=              0.1060
 Quadrupole moment (field-independent basis, Debye-Ang):
   XX=            -26.9468   YY=            -53.6574   ZZ=            -22.4932
   XY=             -3.2216   XZ=              0.0000   YZ=              0.0000

 161\CCSD(T)=-218.6239728\RMSD=2.550e-09\PG=CS [SG(N4)]\\@
 Normal termination of Gaussian 16 at Tue Feb 13 18:25:18 2024.
