 Gaussian 16, Revision A.03,
 Gaussian 16:  ES64L-G16RevA.03 25-Dec-2016

 -----------------------------------------------
 #p ROCCSD(T,MaxCyc=200)/cc-pVTZ SCF(MaxCyc=200)
 -----------------------------------------------

 ---------
 N2_N2_258
 ---------
 Symbolic Z-matrix:
 Charge = -1 Multiplicity = 2

                         Standard orientation:
 ---------------------------------------------------------------------
 Center     Atomic      Atomic             Coordinates (Angstroms)
 Number     Number       Type             X           Y           Z
 ---------------------------------------------------------------------
      1          7           0        0.000000    0.000000    3.310000
      2          7           0        0.000000    0.000000    2.220000
      3          7           0        0.000000    0.000000   -2.220000
      4          7           0        0.000000    0.000000   -3.310000
 ---------------------------------------------------------------------

 SCF Done:  E(ROHF) =  -217.819988827     A.U. after   11 cycles
 E2 =    -0.7700214182D+00 EUMP2 =    -0.21859001024488D+03
 CCSD(T)
 CCSD(T)= -0.21862049690D+03

 Unable to determine electronic state:  an orbital has unidentified symmetry.
 Alpha  occ. eigenvalues --  -15.41855 -15.41855 -15.41390 -15.41390  -1.23387
 Alpha  occ. eigenvalues --   -1.23382  -0.55673  -0.55513  -0.42242  -0.42020
 Alpha  occ. eigenvalues --   -0.40122  -0.39931  -0.37866  -0.37856   0.13235
 Alpha virt. eigenvalues --    0.23244   0.38329   0.38568   0.55259   0.64853
 Alpha virt. eigenvalues --    0.72857   0.75745   0.76039   0.76061   0.76314
 Alpha virt. eigenvalues --    0.81928   0.88659   0.89062   0.90716   0.91947

 Mulliken charges and spin densities:
               1          2
     1  N   -0.260084   0.244190
     2  N   -0.239916   0.255810
     3  N   -0.239916   0.255810
     4  N   -0.260084   0.244190
 Sum of Mulliken charges =  -1.00000   1.00000

 Dipole moment (field-independent basis, Debye):
    X=             -0.0000    Y=              0.0000    Z=              0.0000  Tot=              0.0000
 Quadrupole moment (field-independent basis, Debye-Ang):
   XX=            -22.4867   YY=            -24.2677   ZZ=            -67.5400
   XY=              0.0000   XZ=              0.0000   YZ=             -0.0000

 Normal termination of Gaussian 16 at Tue Feb 13 19:11:49 2024.
