 Gaussian 16, Revision A.03,
 Gaussian 16:  ES64L-G16RevA.03 25-Dec-2016

 -----------------------------------------------
 #p ROCCSD(T,MaxCyc=200)/cc-pVTZ SCF(MaxCyc=200)
 -----------------------------------------------

 ---------
 N2_N2_242
 ---------
 Symbolic Z-matrix:
 Charge = -1 Multiplicity = 2

                         Standard orientation:
 ---------------------------------------------------------------------
 Center     Atomic      Atomic             Coordinates (Angstroms)
 Number     Number       Type             X           Y           Z
 ---------------------------------------------------------------------
      1          7           0       -0.817500   -2.372500    0.000000
      2          7           0        0.272500   -2.372500    0.000000
      3          7           0        0.272500    1.827500    0.000000
      4          7           0        0.272500    2.917500    0.000000
 ---------------------------------------------------------------------

 SCF Done:  E(ROHF) =  -217.822781360     A.U. after   15 cycles
 E2 =    -0.7694129463D+00 EUMP2 =    -0.21859219430613D+03
 CCSD(T)
 CCSD(T)= -0.21862322991D+03

 The electronic state is 2-A'.
 Alpha  occ. eigenvalues --  -15.41737 -15.41175 -15.40963 -15.40618  -1.23163
 Alpha  occ. eigenvalues --   -1.22481  -0.55291  -0.54862  -0.41769  -0.41268
 Alpha  occ. eigenvalues --   -0.39761  -0.39259  -0.37628  -0.37004   0.12965
 Alpha virt. eigenvalues --    0.24817   0.38734   0.39173   0.59484   0.61126
 Alpha virt. eigenvalues --    0.72457   0.75824   0.76273   0.76304   0.77173
 Alpha virt. eigenvalues --    0.82008   0.88888   0.89848   0.92145   0.94093

 Mulliken charges and spin densities:
               1          2
     1  N   -0.260611   0.253491
     2  N   -0.248412   0.255970
     3  N   -0.232714   0.253392
     4  N   -0.258263   0.237146
 Sum of Mulliken charges =  -1.00000   1.00000

 Dipole moment (field-independent basis, Debye):
    X=              0.0396    Y=              0.0920    Z=              0.0000  Tot=              0.1002
 Quadrupole moment (field-independent basis, Debye-Ang):
   XX=            -26.9316   YY=            -55.0058   ZZ=            -22.4906
   XY=             -3.2941   XZ=              0.0000   YZ=              0.0000

 08\CCSD(T)=-218.6232299\RMSD=9.282e-09\PG=CS [SG(N4)]\\@
 Normal termination of Gaussian 16 at Tue Feb 13 18:41:07 2024.
