 Gaussian 16, Revision A.03,
 Gaussian 16:  ES64L-G16RevA.03 25-Dec-2016

 -----------------------------------------------
 #p ROCCSD(T,MaxCyc=200)/cc-pVTZ SCF(MaxCyc=200)
 -----------------------------------------------

 ---------
 N2_N2_170
 ---------
 Symbolic Z-matrix:
 Charge = -1 Multiplicity = 2

                         Standard orientation:
 ---------------------------------------------------------------------
 Center     Atomic      Atomic             Coordinates (Angstroms)
 Number     Number       Type             X           Y           Z
 ---------------------------------------------------------------------
      1          7           0       -0.817500   -1.892500    0.000000
      2          7           0        0.272500   -1.892500    0.000000
      3          7           0        0.272500    1.347500    0.000000
      4          7           0        0.272500    2.437500    0.000000
 ---------------------------------------------------------------------

 SCF Done:  E(ROHF) =  -217.830395933     A.U. after   16 cycles
 E2 =    -0.7686327831D+00 EUMP2 =    -0.21859902871643D+03
 CCSD(T)
 CCSD(T)= -0.21863175074D+03

 The electronic state is 2-A'.
 Alpha  occ. eigenvalues --  -15.41303 -15.40350 -15.39398 -15.39043  -1.22439
 Alpha  occ. eigenvalues --   -1.20851  -0.54421  -0.53311  -0.40730  -0.40290
 Alpha  occ. eigenvalues --   -0.38593  -0.37248  -0.36887  -0.35415   0.12094
 Alpha virt. eigenvalues --    0.28676   0.39532   0.40716   0.61188   0.63676
 Alpha virt. eigenvalues --    0.72216   0.75853   0.76177   0.77969   0.79616
 Alpha virt. eigenvalues --    0.83429   0.88715   0.89876   0.94933   0.96850

 Mulliken charges and spin densities:
               1          2
     1  N   -0.282333   0.259338
     2  N   -0.242395   0.265930
     3  N   -0.230106   0.254286
     4  N   -0.245166   0.220446
 Sum of Mulliken charges =  -1.00000   1.00000

 Dipole moment (field-independent basis, Debye):
    X=              0.1225    Y=              0.2928    Z=              0.0000  Tot=              0.3173
 Quadrupole moment (field-independent basis, Debye-Ang):
   XX=            -27.1038   YY=            -45.2149   ZZ=            -22.5159
   XY=             -2.6897   XZ=              0.0000   YZ=              0.0000

 473\CCSD(T)=-218.6317507\RMSD=4.636e-09\PG=CS [SG(N4)]\\@
 Normal termination of Gaussian 16 at Tue Feb 13 16:47:46 2024.
