 Gaussian 16, Revision A.03,
 Gaussian 16:  ES64L-G16RevA.03 25-Dec-2016

 -----------------------------------------------
 #p ROCCSD(T,MaxCyc=200)/cc-pVTZ SCF(MaxCyc=200)
 -----------------------------------------------

 --------
 N2_N2_58
 --------
 Symbolic Z-matrix:
 Charge = -1 Multiplicity = 2

                         Standard orientation:
 ---------------------------------------------------------------------
 Center     Atomic      Atomic             Coordinates (Angstroms)
 Number     Number       Type             X           Y           Z
 ---------------------------------------------------------------------
      1          7           0        0.578060   -1.730560   -0.000000
      2          7           0       -0.192687   -0.959813   -0.000000
      3          7           0       -0.192687    0.800187    0.000000
      4          7           0       -0.192687    1.890186    0.000000
 ---------------------------------------------------------------------

 SCF Done:  E(ROHF) =  -217.742254407     A.U. after   20 cycles
 E2 =    -0.7760050995D+00 EUMP2 =    -0.21851825950616D+03
 CCSD(T)
 CCSD(T)= -0.21855485920D+03

 The electronic state is 2-A".
 Alpha  occ. eigenvalues --  -15.43361 -15.38960 -15.31021 -15.30419  -1.22858
 Alpha  occ. eigenvalues --   -1.14610  -0.64375  -0.47381  -0.40377  -0.39641
 Alpha  occ. eigenvalues --   -0.38882  -0.35607  -0.29126  -0.19318   0.05598
 Alpha virt. eigenvalues --    0.39656   0.42035   0.46535   0.64261   0.67125
 Alpha virt. eigenvalues --    0.76801   0.77231   0.80244   0.84448   0.86329
 Alpha virt. eigenvalues --    0.90760   0.93023   0.95879   1.04035   1.05284

 Mulliken charges and spin densities:
               1          2
     1  N   -0.253380   0.071309
     2  N   -0.005859   0.068936
     3  N   -0.423443   0.402040
     4  N   -0.317319   0.457715
 Sum of Mulliken charges =  -1.00000   1.00000

 Dipole moment (field-independent basis, Debye):
    X=              0.0209    Y=             -2.4663    Z=             -0.0000  Tot=              2.4664
 Quadrupole moment (field-independent basis, Debye-Ang):
   XX=            -24.3962   YY=            -40.2322   ZZ=            -24.0433
   XY=              3.0183   XZ=              0.0000   YZ=             -0.0000

 8487\CCSD=-218.5138684\CCSD(T)=-218.5548592\RMSD=7.486e-10\PG=CS [SG(N
 Normal termination of Gaussian 16 at Tue Feb 13 13:57:45 2024.
