 Gaussian 16, Revision A.03,
 Gaussian 16:  ES64L-G16RevA.03 25-Dec-2016

 -----------------------------------------------
 #p ROCCSD(T,MaxCyc=200)/cc-pVTZ SCF(MaxCyc=200)
 -----------------------------------------------

 --------
 N2_N2_84
 --------
 Symbolic Z-matrix:
 Charge = -1 Multiplicity = 2

                         Standard orientation:
 ---------------------------------------------------------------------
 Center     Atomic      Atomic             Coordinates (Angstroms)
 Number     Number       Type             X           Y           Z
 ---------------------------------------------------------------------
      1          7           0        0.000000    0.000000    2.150000
      2          7           0        0.000000    0.000000    1.060000
      3          7           0        0.000000    0.000000   -1.060000
      4          7           0        0.000000    0.000000   -2.150000
 ---------------------------------------------------------------------

 SCF Done:  E(ROHF) =  -217.798253595     A.U. after   12 cycles
 E2 =    -0.7709935059D+00 EUMP2 =    -0.21856924710104D+03
 CCSD(T)
 CCSD(T)= -0.21860249000D+03

 Unable to determine electronic state:  an orbital has unidentified symmetry.
 Alpha  occ. eigenvalues --  -15.37667 -15.37667 -15.36982 -15.36981  -1.19902
 Alpha  occ. eigenvalues --   -1.19411  -0.57897  -0.48656  -0.40355  -0.39488
 Alpha  occ. eigenvalues --   -0.37097  -0.34950  -0.33445  -0.28373   0.10084
 Alpha virt. eigenvalues --    0.34939   0.38683   0.45915   0.63297   0.65753
 Alpha virt. eigenvalues --    0.76738   0.76968   0.81747   0.82583   0.89713
 Alpha virt. eigenvalues --    0.90991   0.93208   0.95707   0.99672   1.07504

 Mulliken charges and spin densities:
               1          2
     1  N   -0.248914   0.227102
     2  N   -0.251086   0.272898
     3  N   -0.251086   0.272898
     4  N   -0.248914   0.227102
 Sum of Mulliken charges =  -1.00000   1.00000

 Dipole moment (field-independent basis, Debye):
    X=             -0.0000    Y=             -0.0000    Z=              0.0000  Tot=              0.0000
 Quadrupole moment (field-independent basis, Debye-Ang):
   XX=            -24.5132   YY=            -22.5729   ZZ=            -44.4381
   XY=              0.0000   XZ=              0.0000   YZ=             -0.0000

 536\PMP2-0=-218.5692471\MP4SDQ=-218.5677497\CCSD=-218.5638325\CCSD(T)=
 Normal termination of Gaussian 16 at Tue Feb 13 14:39:23 2024.
