 Gaussian 16, Revision A.03,
 Gaussian 16:  ES64L-G16RevA.03 25-Dec-2016

 -----------------------------------------------
 #p ROCCSD(T,MaxCyc=200)/cc-pVTZ SCF(MaxCyc=200)
 -----------------------------------------------

 ---------
 N2_N2_102
 ---------
 Symbolic Z-matrix:
 Charge = -1 Multiplicity = 2

                         Standard orientation:
 ---------------------------------------------------------------------
 Center     Atomic      Atomic             Coordinates (Angstroms)
 Number     Number       Type             X           Y           Z
 ---------------------------------------------------------------------
      1          7           0        0.000000    0.000000    2.270000
      2          7           0        0.000000    0.000000    1.180000
      3          7           0        0.000000    0.000000   -1.180000
      4          7           0        0.000000    0.000000   -2.270000
 ---------------------------------------------------------------------

 SCF Done:  E(ROHF) =  -217.818811322     A.U. after   12 cycles
 E2 =    -0.7689287236D+00 EUMP2 =    -0.21858774004557D+03
 CCSD(T)
 CCSD(T)= -0.21862093961D+03

 Unable to determine electronic state:  an orbital has unidentified symmetry.
 Alpha  occ. eigenvalues --  -15.38823 -15.38822 -15.37918 -15.37917  -1.20534
 Alpha  occ. eigenvalues --   -1.20264  -0.55996  -0.50159  -0.40000  -0.39764
 Alpha  occ. eigenvalues --   -0.38111  -0.35331  -0.34457  -0.32094   0.10978
 Alpha virt. eigenvalues --    0.32625   0.38820   0.44313   0.63430   0.66027
 Alpha virt. eigenvalues --    0.76094   0.76394   0.80873   0.81527   0.89570
 Alpha virt. eigenvalues --    0.90495   0.91604   0.92202   0.94172   1.05332

 Mulliken charges and spin densities:
               1          2
     1  N   -0.257933   0.227111
     2  N   -0.242067   0.272889
     3  N   -0.242067   0.272889
     4  N   -0.257933   0.227111
 Sum of Mulliken charges =  -1.00000   1.00000

 Dipole moment (field-independent basis, Debye):
    X=             -0.0000    Y=              0.0000    Z=              0.0000  Tot=              0.0000
 Quadrupole moment (field-independent basis, Debye-Ang):
   XX=            -22.5675   YY=            -24.5197   ZZ=            -45.9992
   XY=              0.0000   XZ=              0.0000   YZ=             -0.0000

 13\PMP2-0=-218.58774\MP4SDQ=-218.5862898\CCSD=-218.5825284\CCSD(T)=-21
 Normal termination of Gaussian 16 at Tue Feb 13 15:01:10 2024.
