 Gaussian 16, Revision A.03,
 Gaussian 16:  ES64L-G16RevA.03 25-Dec-2016

 -----------------------------------------------
 #p ROCCSD(T,MaxCyc=200)/cc-pVTZ SCF(MaxCyc=200)
 -----------------------------------------------

 --------
 N2_N2_40
 --------
 Symbolic Z-matrix:
 Charge = -1 Multiplicity = 2

                         Standard orientation:
 ---------------------------------------------------------------------
 Center     Atomic      Atomic             Coordinates (Angstroms)
 Number     Number       Type             X           Y           Z
 ---------------------------------------------------------------------
      1          7           0        0.578060   -1.610560   -0.000000
      2          7           0       -0.192687   -0.839813    0.000000
      3          7           0       -0.192687    0.680186    0.000000
      4          7           0       -0.192687    1.770187    0.000000
 ---------------------------------------------------------------------

 SCF Done:  E(ROHF) =  -217.660073774     A.U. after   18 cycles
 E2 =    -0.7804566111D+00 EUMP2 =    -0.21844053038500D+03
 CCSD(T)
 CCSD(T)= -0.21847873945D+03

 The electronic state is 2-A".
 Alpha  occ. eigenvalues --  -15.41880 -15.35358 -15.34586 -15.32631  -1.21476
 Alpha  occ. eigenvalues --   -1.17191  -0.73754  -0.45163  -0.44156  -0.40776
 Alpha  occ. eigenvalues --   -0.38298  -0.34068  -0.31042  -0.10241   0.00901
 Alpha virt. eigenvalues --    0.42354   0.43780   0.49793   0.64711   0.67376
 Alpha virt. eigenvalues --    0.77238   0.77265   0.81128   0.84563   0.86508
 Alpha virt. eigenvalues --    0.89682   0.93491   0.96988   1.03132   1.04652

 Mulliken charges and spin densities:
               1          2
     1  N   -0.413645   0.071954
     2  N   -0.028612   0.033555
     3  N   -0.281883   0.378716
     4  N   -0.275861   0.515776
 Sum of Mulliken charges =  -1.00000   1.00000

 Dipole moment (field-independent basis, Debye):
    X=             -0.3544    Y=             -0.1821    Z=              0.0000  Tot=              0.3985
 Quadrupole moment (field-independent basis, Debye-Ang):
   XX=            -25.1614   YY=            -40.0837   ZZ=            -23.5497
   XY=              3.1607   XZ=              0.0000   YZ=             -0.0000

 3183\CCSD=-218.4362041\CCSD(T)=-218.4787395\RMSD=3.841e-09\PG=CS [SG(N
 Normal termination of Gaussian 16 at Tue Feb 13 13:27:11 2024.
