 Gaussian 16, Revision A.03,
 Gaussian 16:  ES64L-G16RevA.03 25-Dec-2016

 -----------------------------------------------
 #p ROCCSD(T,MaxCyc=200)/cc-pVTZ SCF(MaxCyc=200)
 -----------------------------------------------

 ---------
 N2_N2_198
 ---------
 Symbolic Z-matrix:
 Charge = -1 Multiplicity = 2

                         Standard orientation:
 ---------------------------------------------------------------------
 Center     Atomic      Atomic             Coordinates (Angstroms)
 Number     Number       Type             X           Y           Z
 ---------------------------------------------------------------------
      1          7           0        0.000000    0.000000    2.910000
      2          7           0        0.000000    0.000000    1.820000
      3          7           0        0.000000    0.000000   -1.820000
      4          7           0        0.000000    0.000000   -2.910000
 ---------------------------------------------------------------------

 SCF Done:  E(ROHF) =  -217.822439777     A.U. after   11 cycles
 E2 =    -0.7693600224D+00 EUMP2 =    -0.21859179979950D+03
 CCSD(T)
 CCSD(T)= -0.21862325580D+03

 Unable to determine electronic state:  an orbital has unidentified symmetry.
 Alpha  occ. eigenvalues --  -15.41156 -15.41155 -15.40546 -15.40546  -1.22611
 Alpha  occ. eigenvalues --   -1.22595  -0.55019  -0.54442  -0.41477  -0.41084
 Alpha  occ. eigenvalues --   -0.39564  -0.38736  -0.37103  -0.37047   0.12972
 Alpha virt. eigenvalues --    0.25401   0.38743   0.39800   0.57446   0.65390
 Alpha virt. eigenvalues --    0.71911   0.75906   0.76213   0.77311   0.77580
 Alpha virt. eigenvalues --    0.88489   0.89308   0.89935   0.92578   0.95027

 Mulliken charges and spin densities:
               1          2
     1  N   -0.250298   0.240666
     2  N   -0.249702   0.259334
     3  N   -0.249702   0.259334
     4  N   -0.250298   0.240666
 Sum of Mulliken charges =  -1.00000   1.00000

 Dipole moment (field-independent basis, Debye):
    X=             -0.0000    Y=             -0.0000    Z=             -0.0000  Tot=              0.0000
 Quadrupole moment (field-independent basis, Debye-Ang):
   XX=            -22.5046   YY=            -24.3320   ZZ=            -57.9101
   XY=              0.0000   XZ=              0.0000   YZ=             -0.0000

 4398\PMP2-0=-218.5917998\MP4SDQ=-218.588381\CCSD=-218.5849686\CCSD(T)=
 Normal termination of Gaussian 16 at Tue Feb 13 17:28:33 2024.
