 Gaussian 16, Revision A.03,
 Gaussian 16:  ES64L-G16RevA.03 25-Dec-2016

 -----------------------------------------------
 #p ROCCSD(T,MaxCyc=200)/cc-pVTZ SCF(MaxCyc=200)
 -----------------------------------------------

 ---------
 N2_N2_286
 ---------
 Symbolic Z-matrix:
 Charge = -1 Multiplicity = 2

                         Standard orientation:
 ---------------------------------------------------------------------
 Center     Atomic      Atomic             Coordinates (Angstroms)
 Number     Number       Type             X           Y           Z
 ---------------------------------------------------------------------
      1          7           0        0.578060   -3.250560    0.000000
      2          7           0       -0.192687   -2.479814    0.000000
      3          7           0       -0.192687    2.320187   -0.000000
      4          7           0       -0.192687    3.410187   -0.000000
 ---------------------------------------------------------------------

 SCF Done:  E(ROHF) =  -217.819934644     A.U. after   15 cycles
 E2 =    -0.7701823421D+00 EUMP2 =    -0.21859011698574D+03
 CCSD(T)
 CCSD(T)= -0.21861825381D+03

 The electronic state is 2-A".
 Alpha  occ. eigenvalues --  -15.42233 -15.41943 -15.41797 -15.41530  -1.23762
 Alpha  occ. eigenvalues --   -1.23489  -0.55990  -0.55766  -0.42513  -0.42265
 Alpha  occ. eigenvalues --   -0.40434  -0.40212  -0.38236  -0.37950   0.13242
 Alpha virt. eigenvalues --    0.22647   0.38071   0.38291   0.58148   0.62318
 Alpha virt. eigenvalues --    0.73836   0.75538   0.75739   0.75796   0.75925
 Alpha virt. eigenvalues --    0.77452   0.88373   0.88693   0.90759   0.91285

 Mulliken charges and spin densities:
               1          2
     1  N   -0.264338   0.247748
     2  N   -0.238860   0.255480
     3  N   -0.236417   0.253384
     4  N   -0.260386   0.243388
 Sum of Mulliken charges =  -1.00000   1.00000

 Dipole moment (field-independent basis, Debye):
    X=             -0.0625    Y=              0.0517    Z=             -0.0000  Tot=              0.0811
 Quadrupole moment (field-independent basis, Debye-Ang):
   XX=            -24.2480   YY=            -68.3017   ZZ=            -24.2529
   XY=              4.4299   XZ=             -0.0000   YZ=              0.0000

 502\CCSD=-218.5845444\CCSD(T)=-218.6182538\RMSD=5.588e-09\PG=CS [SG(N4
 Normal termination of Gaussian 16 at Tue Feb 13 20:26:11 2024.
