 Gaussian 16, Revision A.03,
 Gaussian 16:  ES64L-G16RevA.03 25-Dec-2016

 -----------------------------------------------
 #p ROCCSD(T,MaxCyc=200)/cc-pVTZ SCF(MaxCyc=200)
 -----------------------------------------------

 ---------
 N2_N2_221
 ---------
 Symbolic Z-matrix:
 Charge = -1 Multiplicity = 2

                         Standard orientation:
 ---------------------------------------------------------------------
 Center     Atomic      Atomic             Coordinates (Angstroms)
 Number     Number       Type             X           Y           Z
 ---------------------------------------------------------------------
      1          7           0       -0.817500   -2.232500    0.000000
      2          7           0        0.272500   -2.232500    0.000000
      3          7           0        0.272500    1.687500    0.000000
      4          7           0        0.272500    2.777500    0.000000
 ---------------------------------------------------------------------

 SCF Done:  E(ROHF) =  -217.824431249     A.U. after   17 cycles
 E2 =    -0.7691675191D+00 EUMP2 =    -0.21859359876766D+03
 CCSD(T)
 CCSD(T)= -0.21862510348D+03

 The electronic state is 2-A'.
 Alpha  occ. eigenvalues --  -15.41569 -15.40928 -15.40634 -15.40289  -1.22935
 Alpha  occ. eigenvalues --   -1.22128  -0.55023  -0.54516  -0.41483  -0.40937
 Alpha  occ. eigenvalues --   -0.39498  -0.38866  -0.37397  -0.36659   0.12804
 Alpha virt. eigenvalues --    0.25717   0.38982   0.39515   0.59290   0.61507
 Alpha virt. eigenvalues --    0.71853   0.75960   0.76285   0.76671   0.77704
 Alpha virt. eigenvalues --    0.83299   0.89049   0.89478   0.94275   0.94907

 Mulliken charges and spin densities:
               1          2
     1  N   -0.264087   0.254107
     2  N   -0.246719   0.257321
     3  N   -0.233739   0.254271
     4  N   -0.255454   0.234301
 Sum of Mulliken charges =  -1.00000   1.00000

 Dipole moment (field-independent basis, Debye):
    X=              0.0497    Y=              0.1095    Z=              0.0000  Tot=              0.1203
 Quadrupole moment (field-independent basis, Debye-Ang):
   XX=            -26.9700   YY=            -51.9115   ZZ=            -22.4969
   XY=             -3.1244   XZ=              0.0000   YZ=              0.0000

 96\CCSD(T)=-218.6251035\RMSD=1.537e-09\PG=CS [SG(N4)]\\@
 Normal termination of Gaussian 16 at Tue Feb 13 18:05:19 2024.
