 Gaussian 16, Revision A.03,
 Gaussian 16:  ES64L-G16RevA.03 25-Dec-2016

 -----------------------------------------------
 #p ROCCSD(T,MaxCyc=200)/cc-pVTZ SCF(MaxCyc=200)
 -----------------------------------------------

 -------
 N2_N2_2
 -------
 Symbolic Z-matrix:
 Charge = -1 Multiplicity = 2

                         Standard orientation:
 ---------------------------------------------------------------------
 Center     Atomic      Atomic             Coordinates (Angstroms)
 Number     Number       Type             X           Y           Z
 ---------------------------------------------------------------------
      1          7           0       -0.817500   -0.772500    0.000000
      2          7           0        0.272500   -0.772500    0.000000
      3          7           0        0.272500    0.227500    0.000000
      4          7           0        0.272500    1.317500    0.000000
 ---------------------------------------------------------------------

 SCF Done:  E(ROHF) =  -217.330363371     A.U. after   18 cycles
 E2 =    -0.7812966788D+00 EUMP2 =    -0.21811166004987D+03
 CCSD(T)
 CCSD(T)= -0.21813779297D+03

 The electronic state is 2-A".
 Alpha  occ. eigenvalues --  -15.51614 -15.36656 -15.30830 -15.27159  -1.53517
 Alpha  occ. eigenvalues --   -1.16968  -0.91494  -0.63671  -0.58952  -0.39594
 Alpha  occ. eigenvalues --   -0.37160  -0.28197  -0.27212  -0.03293  -0.02820
 Alpha virt. eigenvalues --    0.47082   0.49107   0.60115   0.63555   0.68170
 Alpha virt. eigenvalues --    0.74536   0.76953   0.79156   0.85423   0.86070
 Alpha virt. eigenvalues --    0.90117   0.91496   0.99912   1.02757   1.04454

 Mulliken charges and spin densities:
               1          2
     1  N   -0.752198   0.732031
     2  N    0.064647   0.060938
     3  N    0.177333   0.071719
     4  N   -0.489782   0.135312
 Sum of Mulliken charges =  -1.00000   1.00000

 Dipole moment (field-independent basis, Debye):
    X=              1.8246    Y=             -0.4692    Z=              0.0000  Tot=              1.8840
 Quadrupole moment (field-independent basis, Debye-Ang):
   XX=            -28.1957   YY=            -34.3506   ZZ=            -22.3156
   XY=             -3.0630   XZ=              0.0000   YZ=              0.0000

 Normal termination of Gaussian 16 at Tue Feb 13 12:22:09 2024.
