 Gaussian 16, Revision A.03,
 Gaussian 16:  ES64L-G16RevA.03 25-Dec-2016

 -----------------------------------------------
 #p ROCCSD(T,MaxCyc=200)/cc-pVTZ SCF(MaxCyc=200)
 -----------------------------------------------

 --------
 N2_N2_33
 --------
 Symbolic Z-matrix:
 Charge = -1 Multiplicity = 2

                         Standard orientation:
 ---------------------------------------------------------------------
 Center     Atomic      Atomic             Coordinates (Angstroms)
 Number     Number       Type             X           Y           Z
 ---------------------------------------------------------------------
      1          7           0        0.000000    0.000000    1.810000
      2          7           0        0.000000    0.000000    0.720000
      3          7           0        0.000000    0.000000   -0.720000
      4          7           0        0.000000    0.000000   -1.810000
 ---------------------------------------------------------------------

 SCF Done:  E(ROHF) =  -217.453650159     A.U. after   12 cycles
 E2 =    -0.8782301055D+00 EUMP2 =    -0.21833188026484D+03
 CCSD(T)
 CCSD(T)= -0.21833492071D+03

 Unable to determine electronic state:  an orbital has unidentified symmetry.
 Alpha  occ. eigenvalues --  -15.50808 -15.50752 -15.34439 -15.34437  -1.25344
 Alpha  occ. eigenvalues --   -1.20196  -0.83478  -0.48965  -0.47086  -0.42949
 Alpha  occ. eigenvalues --   -0.39331  -0.37405  -0.35530   0.02037   0.03082
 Alpha virt. eigenvalues --    0.38542   0.39355   0.41821   0.64891   0.65507
 Alpha virt. eigenvalues --    0.74773   0.76001   0.76947   0.83875   0.85101
 Alpha virt. eigenvalues --    0.88263   0.94528   0.95774   1.03989   1.08305

 Mulliken charges and spin densities:
               1          2
     1  N   -0.384188   0.350077
     2  N   -0.115812   0.149923
     3  N   -0.115812   0.149923
     4  N   -0.384188   0.350077
 Sum of Mulliken charges =  -1.00000   1.00000

 Dipole moment (field-independent basis, Debye):
    X=             -0.0000    Y=             -0.0000    Z=             -0.0000  Tot=              0.0000
 Quadrupole moment (field-independent basis, Debye-Ang):
   XX=            -23.1971   YY=            -24.8612   ZZ=            -46.5686
   XY=              0.0000   XZ=              0.0000   YZ=             -0.0000

 502\PMP2-0=-218.3318803\MP4SDQ=-218.2859301\CCSD=-218.2783737\CCSD(T)=
 Normal termination of Gaussian 16 at Tue Feb 13 13:14:46 2024.
