 Gaussian 16, Revision A.03,
 Gaussian 16:  ES64L-G16RevA.03 25-Dec-2016

 -----------------------------------------------
 #p ROCCSD(T,MaxCyc=200)/cc-pVTZ SCF(MaxCyc=200)
 -----------------------------------------------

 ---------
 N2_N2_155
 ---------
 Symbolic Z-matrix:
 Charge = -1 Multiplicity = 2

                         Standard orientation:
 ---------------------------------------------------------------------
 Center     Atomic      Atomic             Coordinates (Angstroms)
 Number     Number       Type             X           Y           Z
 ---------------------------------------------------------------------
      1          7           0       -0.817500   -1.792500    0.000000
      2          7           0        0.272500   -1.792500    0.000000
      3          7           0        0.272500    1.247500    0.000000
      4          7           0        0.272500    2.337500    0.000000
 ---------------------------------------------------------------------

 SCF Done:  E(ROHF) =  -217.832146303     A.U. after   17 cycles
 E2 =    -0.7686094913D+00 EUMP2 =    -0.21860075579445D+03
 CCSD(T)
 CCSD(T)= -0.21863385530D+03

 The electronic state is 2-A'.
 Alpha  occ. eigenvalues --  -15.41257 -15.40190 -15.38825 -15.38455  -1.22317
 Alpha  occ. eigenvalues --   -1.20293  -0.54306  -0.52807  -0.40504  -0.40299
 Alpha  occ. eigenvalues --   -0.38120  -0.36764  -0.36446  -0.34871   0.11772
 Alpha virt. eigenvalues --    0.29801   0.39667   0.41220   0.61738   0.64578
 Alpha virt. eigenvalues --    0.73855   0.75689   0.76423   0.78560   0.80340
 Alpha virt. eigenvalues --    0.82985   0.88881   0.90423   0.95270   0.97416

 Mulliken charges and spin densities:
               1          2
     1  N   -0.290807   0.262387
     2  N   -0.242591   0.271564
     3  N   -0.222948   0.252339
     4  N   -0.243654   0.213710
 Sum of Mulliken charges =  -1.00000   1.00000

 Dipole moment (field-independent basis, Debye):
    X=              0.1622    Y=              0.4046    Z=              0.0000  Tot=              0.4359
 Quadrupole moment (field-independent basis, Debye-Ang):
   XX=            -27.1499   YY=            -43.5009   ZZ=            -22.5222
   XY=             -2.5555   XZ=              0.0000   YZ=              0.0000

 76\CCSD(T)=-218.6338553\RMSD=3.567e-09\PG=CS [SG(N4)]\\@
 Normal termination of Gaussian 16 at Tue Feb 13 16:26:12 2024.
