 Gaussian 16, Revision A.03,
 Gaussian 16:  ES64L-G16RevA.03 25-Dec-2016

 -----------------------------------------------
 #p ROCCSD(T,MaxCyc=200)/cc-pVTZ SCF(MaxCyc=200)
 -----------------------------------------------

 --------
 N2_N2_12
 --------
 Symbolic Z-matrix:
 Charge = -1 Multiplicity = 2

                         Standard orientation:
 ---------------------------------------------------------------------
 Center     Atomic      Atomic             Coordinates (Angstroms)
 Number     Number       Type             X           Y           Z
 ---------------------------------------------------------------------
      1          7           0        0.000000    0.000000    1.670000
      2          7           0        0.000000    0.000000    0.580000
      3          7           0        0.000000    0.000000   -0.580000
      4          7           0        0.000000    0.000000   -1.670000
 ---------------------------------------------------------------------

 SCF Done:  E(ROHF) =  -217.569975566     A.U. after   12 cycles
 E2 =    -0.8175953685D+00 EUMP2 =    -0.21838757093503D+03
 CCSD(T)
 CCSD(T)= -0.21840256163D+03

 Unable to determine electronic state:  an orbital has unidentified symmetry.
 Alpha  occ. eigenvalues --  -15.47887 -15.47686 -15.30988 -15.30987  -1.31511
 Alpha  occ. eigenvalues --   -1.18072  -0.98766  -0.54906  -0.52980  -0.40199
 Alpha  occ. eigenvalues --   -0.38328  -0.33743  -0.31812  -0.00825   0.00140
 Alpha virt. eigenvalues --    0.47398   0.50087   0.57924   0.65768   0.70679
 Alpha virt. eigenvalues --    0.70802   0.74588   0.75672   0.84039   0.85543
 Alpha virt. eigenvalues --    0.86915   0.94588   0.95798   1.05258   1.10761

 Mulliken charges and spin densities:
               1          2
     1  N   -0.335604   0.395627
     2  N   -0.164396   0.104373
     3  N   -0.164396   0.104373
     4  N   -0.335604   0.395627
 Sum of Mulliken charges =  -1.00000   1.00000

 Dipole moment (field-independent basis, Debye):
    X=             -0.0000    Y=             -0.0000    Z=              0.0000  Tot=              0.0000
 Quadrupole moment (field-independent basis, Debye-Ang):
   XX=            -22.5914   YY=            -24.1305   ZZ=            -46.4351
   XY=             -0.0000   XZ=              0.0000   YZ=             -0.0000

 756\PMP2-0=-218.3875709\MP4SDQ=-218.3634216\CCSD=-218.3584077\CCSD(T)=
 Normal termination of Gaussian 16 at Tue Feb 13 12:40:06 2024.
