 Gaussian 16, Revision A.03,
 Gaussian 16:  ES64L-G16RevA.03 25-Dec-2016

 -----------------------------------------------
 #p ROCCSD(T,MaxCyc=200)/cc-pVTZ SCF(MaxCyc=200)
 -----------------------------------------------

 ---------
 N2_N2_205
 ---------
 Symbolic Z-matrix:
 Charge = -1 Multiplicity = 2

                         Standard orientation:
 ---------------------------------------------------------------------
 Center     Atomic      Atomic             Coordinates (Angstroms)
 Number     Number       Type             X           Y           Z
 ---------------------------------------------------------------------
      1          7           0        0.578060   -2.710560    0.000000
      2          7           0       -0.192687   -1.939813    0.000000
      3          7           0       -0.192687    1.780186    0.000000
      4          7           0       -0.192687    2.870187    0.000000
 ---------------------------------------------------------------------

 SCF Done:  E(ROHF) =  -217.822440430     A.U. after   16 cycles
 E2 =    -0.7695207160D+00 EUMP2 =    -0.21859196114565D+03
 CCSD(T)
 CCSD(T)= -0.21862328609D+03

 The electronic state is 2-A".
 Alpha  occ. eigenvalues --  -15.41465 -15.40903 -15.40876 -15.40327  -1.22893
 Alpha  occ. eigenvalues --   -1.22354  -0.55114  -0.54503  -0.41579  -0.41080
 Alpha  occ. eigenvalues --   -0.39616  -0.38905  -0.37358  -0.36777   0.12982
 Alpha virt. eigenvalues --    0.25192   0.38885   0.39441   0.57982   0.64433
 Alpha virt. eigenvalues --    0.72167   0.75777   0.75914   0.77277   0.77737
 Alpha virt. eigenvalues --    0.84442   0.89069   0.90218   0.90786   0.94388

 Mulliken charges and spin densities:
               1          2
     1  N   -0.265833   0.246635
     2  N   -0.241042   0.260360
     3  N   -0.240996   0.255097
     4  N   -0.252129   0.237908
 Sum of Mulliken charges =  -1.00000   1.00000

 Dipole moment (field-independent basis, Debye):
    X=             -0.0963    Y=              0.1081    Z=             -0.0000  Tot=              0.1447
 Quadrupole moment (field-independent basis, Debye-Ang):
   XX=            -24.2927   YY=            -55.0748   ZZ=            -24.3129
   XY=              3.9876   XZ=              0.0000   YZ=              0.0000

 84071\CCSD=-218.5851413\CCSD(T)=-218.6232861\RMSD=4.335e-09\PG=CS [SG(
 Normal termination of Gaussian 16 at Tue Feb 13 17:39:32 2024.
