 Gaussian 16, Revision A.03,
 Gaussian 16:  ES64L-G16RevA.03 25-Dec-2016

 -----------------------------------------------
 #p ROCCSD(T,MaxCyc=200)/cc-pVTZ SCF(MaxCyc=200)
 -----------------------------------------------

 ---------
 N2_N2_113
 ---------
 Symbolic Z-matrix:
 Charge = -1 Multiplicity = 2

                         Standard orientation:
 ---------------------------------------------------------------------
 Center     Atomic      Atomic             Coordinates (Angstroms)
 Number     Number       Type             X           Y           Z
 ---------------------------------------------------------------------
      1          7           0       -0.817500   -1.512500    0.000000
      2          7           0        0.272500   -1.512500    0.000000
      3          7           0        0.272500    0.967500    0.000000
      4          7           0        0.272500    2.057500    0.000000
 ---------------------------------------------------------------------

 SCF Done:  E(ROHF) =  -217.829032906     A.U. after   20 cycles
 E2 =    -0.7696739979D+00 EUMP2 =    -0.21859870690342D+03
 CCSD(T)
 CCSD(T)= -0.21863322848D+03

 The electronic state is 2-A'.
 Alpha  occ. eigenvalues --  -15.41556 -15.40272 -15.35803 -15.35366  -1.22474
 Alpha  occ. eigenvalues --   -1.17692  -0.54880  -0.50637  -0.41495  -0.39984
 Alpha  occ. eigenvalues --   -0.36942  -0.35775  -0.32490  -0.32295   0.10440
 Alpha virt. eigenvalues --    0.33720   0.39660   0.43445   0.62985   0.64465
 Alpha virt. eigenvalues --    0.75668   0.77497   0.79117   0.81424   0.82793
 Alpha virt. eigenvalues --    0.87602   0.89197   0.94635   0.96676   0.99030

 Mulliken charges and spin densities:
               1          2
     1  N   -0.338868   0.284194
     2  N   -0.259314   0.316715
     3  N   -0.168512   0.222979
     4  N   -0.233305   0.176111
 Sum of Mulliken charges =  -1.00000   1.00000

 Dipole moment (field-independent basis, Debye):
    X=              0.3997    Y=              1.1792    Z=              0.0000  Tot=              1.2451
 Quadrupole moment (field-independent basis, Debye-Ang):
   XX=            -27.3051   YY=            -39.4821   ZZ=            -22.5355
   XY=             -2.2170   XZ=              0.0000   YZ=              0.0000

 74\CCSD(T)=-218.6332285\RMSD=8.374e-09\PG=CS [SG(N4)]\\@
 Normal termination of Gaussian 16 at Tue Feb 13 15:20:55 2024.
