 Gaussian 16, Revision A.03,
 Gaussian 16:  ES64L-G16RevA.03 25-Dec-2016

 -----------------------------------------------
 #p ROCCSD(T,MaxCyc=200)/cc-pVTZ SCF(MaxCyc=200)
 -----------------------------------------------

 ---------
 N2_N2_227
 ---------
 Symbolic Z-matrix:
 Charge = -1 Multiplicity = 2

                         Standard orientation:
 ---------------------------------------------------------------------
 Center     Atomic      Atomic             Coordinates (Angstroms)
 Number     Number       Type             X           Y           Z
 ---------------------------------------------------------------------
      1          7           0       -0.817500   -2.272500    0.000000
      2          7           0        0.272500   -2.272500    0.000000
      3          7           0        0.272500    1.727500    0.000000
      4          7           0        0.272500    2.817500    0.000000
 ---------------------------------------------------------------------

 SCF Done:  E(ROHF) =  -217.823904805     A.U. after   16 cycles
 E2 =    -0.7692388134D+00 EUMP2 =    -0.21859314361884D+03
 CCSD(T)
 CCSD(T)= -0.21862451639D+03

 The electronic state is 2-A'.
 Alpha  occ. eigenvalues --  -15.41614 -15.40998 -15.40735 -15.40390  -1.22999
 Alpha  occ. eigenvalues --   -1.22236  -0.55100  -0.54621  -0.41566  -0.41034
 Alpha  occ. eigenvalues --   -0.39574  -0.38989  -0.37462  -0.36764   0.12856
 Alpha virt. eigenvalues --    0.25443   0.38911   0.39411   0.59294   0.61386
 Alpha virt. eigenvalues --    0.72003   0.75929   0.76293   0.76558   0.77538
 Alpha virt. eigenvalues --    0.83019   0.89010   0.89594   0.94063   0.94222

 Mulliken charges and spin densities:
               1          2
     1  N   -0.262911   0.253875
     2  N   -0.247248   0.256860
     3  N   -0.233404   0.254025
     4  N   -0.256438   0.235239
 Sum of Mulliken charges =  -1.00000   1.00000

 Dipole moment (field-independent basis, Debye):
    X=              0.0460    Y=              0.1022    Z=              0.0000  Tot=              0.1121
 Quadrupole moment (field-independent basis, Debye-Ang):
   XX=            -26.9580   YY=            -52.7769   ZZ=            -22.4950
   XY=             -3.1731   XZ=              0.0000   YZ=              0.0000

 9\CCSD(T)=-218.6245164\RMSD=3.535e-09\PG=CS [SG(N4)]\\@
 Normal termination of Gaussian 16 at Tue Feb 13 18:15:00 2024.
