 Gaussian 16, Revision A.03,
 Gaussian 16:  ES64L-G16RevA.03 25-Dec-2016

 -----------------------------------------------
 #p ROCCSD(T,MaxCyc=200)/cc-pVTZ SCF(MaxCyc=200)
 -----------------------------------------------

 ---------
 N2_N2_243
 ---------
 Symbolic Z-matrix:
 Charge = -1 Multiplicity = 2

                         Standard orientation:
 ---------------------------------------------------------------------
 Center     Atomic      Atomic             Coordinates (Angstroms)
 Number     Number       Type             X           Y           Z
 ---------------------------------------------------------------------
      1          7           0        0.000000    0.000000    3.210000
      2          7           0        0.000000    0.000000    2.120000
      3          7           0        0.000000    0.000000   -2.120000
      4          7           0        0.000000    0.000000   -3.210000
 ---------------------------------------------------------------------

 SCF Done:  E(ROHF) =  -217.820341788     A.U. after   11 cycles
 E2 =    -0.7698999512D+00 EUMP2 =    -0.21859024173904D+03
 CCSD(T)
 CCSD(T)= -0.21862093105D+03

 Unable to determine electronic state:  an orbital has unidentified symmetry.
 Alpha  occ. eigenvalues --  -15.41691 -15.41691 -15.41202 -15.41202  -1.23210
 Alpha  occ. eigenvalues --   -1.23204  -0.55508  -0.55292  -0.42070  -0.41818
 Alpha  occ. eigenvalues --   -0.39971  -0.39693  -0.37691  -0.37675   0.13199
 Alpha virt. eigenvalues --    0.23688   0.38453   0.38815   0.54849   0.65326
 Alpha virt. eigenvalues --    0.72509   0.75836   0.76132   0.76310   0.76562
 Alpha virt. eigenvalues --    0.84634   0.88806   0.89722   0.90618   0.92475

 Mulliken charges and spin densities:
               1          2
     1  N   -0.258176   0.243603
     2  N   -0.241824   0.256397
     3  N   -0.241824   0.256397
     4  N   -0.258176   0.243603
 Sum of Mulliken charges =  -1.00000   1.00000

 Dipole moment (field-independent basis, Debye):
    X=             -0.0000    Y=             -0.0000    Z=             -0.0000  Tot=              0.0000
 Quadrupole moment (field-independent basis, Debye-Ang):
   XX=            -24.2782   YY=            -22.4901   ZZ=            -64.9911
   XY=              0.0000   XZ=              0.0000   YZ=             -0.0000

 Normal termination of Gaussian 16 at Tue Feb 13 18:42:37 2024.
