 Gaussian 16, Revision A.03,
 Gaussian 16:  ES64L-G16RevA.03 25-Dec-2016

 -----------------------------------------------
 #p ROCCSD(T,MaxCyc=200)/cc-pVTZ SCF(MaxCyc=200)
 -----------------------------------------------

 ---------
 N2_N2_159
 ---------
 Symbolic Z-matrix:
 Charge = -1 Multiplicity = 2

                         Standard orientation:
 ---------------------------------------------------------------------
 Center     Atomic      Atomic             Coordinates (Angstroms)
 Number     Number       Type             X           Y           Z
 ---------------------------------------------------------------------
      1          7           0        0.000000    0.000000    2.650000
      2          7           0        0.000000    0.000000    1.560000
      3          7           0        0.000000    0.000000   -1.560000
      4          7           0        0.000000    0.000000   -2.650000
 ---------------------------------------------------------------------

 SCF Done:  E(ROHF) =  -217.825612319     A.U. after   11 cycles
 E2 =    -0.7686367401D+00 EUMP2 =    -0.21859424905957D+03
 CCSD(T)
 CCSD(T)= -0.21862650184D+03

 Unable to determine electronic state:  an orbital has unidentified symmetry.
 Alpha  occ. eigenvalues --  -15.40578 -15.40578 -15.39787 -15.39787  -1.21962
 Alpha  occ. eigenvalues --   -1.21917  -0.54734  -0.53295  -0.40849  -0.40208
 Alpha  occ. eigenvalues --   -0.39403  -0.37314  -0.36490  -0.36322   0.12521
 Alpha virt. eigenvalues --    0.27566   0.38861   0.41089   0.63813   0.64415
 Alpha virt. eigenvalues --    0.73141   0.75665   0.76006   0.78532   0.78877
 Alpha virt. eigenvalues --    0.89214   0.89495   0.89832   0.92146   0.98625

 Mulliken charges and spin densities:
               1          2
     1  N   -0.249101   0.235771
     2  N   -0.250899   0.264229
     3  N   -0.250899   0.264229
     4  N   -0.249101   0.235771
 Sum of Mulliken charges =  -1.00000   1.00000

 Dipole moment (field-independent basis, Debye):
    X=             -0.0000    Y=              0.0000    Z=              0.0000  Tot=              0.0000
 Quadrupole moment (field-independent basis, Debye-Ang):
   XX=            -22.5250   YY=            -24.4088   ZZ=            -52.4669
   XY=              0.0000   XZ=              0.0000   YZ=             -0.0000

 6123\PMP2-0=-218.5942491\MP4SDQ=-218.5917145\CCSD=-218.588201\CCSD(T)=
 Normal termination of Gaussian 16 at Tue Feb 13 16:31:56 2024.
