 Gaussian 16, Revision A.03,
 Gaussian 16:  ES64L-G16RevA.03 25-Dec-2016

 -----------------------------------------------
 #p ROCCSD(T,MaxCyc=200)/cc-pVTZ SCF(MaxCyc=200)
 -----------------------------------------------

 --------
 N2_N2_43
 --------
 Symbolic Z-matrix:
 Charge = -1 Multiplicity = 2

                         Standard orientation:
 ---------------------------------------------------------------------
 Center     Atomic      Atomic             Coordinates (Angstroms)
 Number     Number       Type             X           Y           Z
 ---------------------------------------------------------------------
      1          7           0        0.578060   -1.630560    0.000000
      2          7           0       -0.192687   -0.859814    0.000000
      3          7           0       -0.192687    0.700187   -0.000000
      4          7           0       -0.192687    1.790186   -0.000000
 ---------------------------------------------------------------------

 SCF Done:  E(ROHF) =  -217.674203995     A.U. after   18 cycles
 E2 =    -0.7813320950D+00 EUMP2 =    -0.21845553608984D+03
 CCSD(T)
 CCSD(T)= -0.21849281095D+03

 The electronic state is 2-A".
 Alpha  occ. eigenvalues --  -15.42132 -15.34076 -15.33925 -15.33658  -1.21314
 Alpha  occ. eigenvalues --   -1.16856  -0.71805  -0.45331  -0.43062  -0.40438
 Alpha  occ. eigenvalues --   -0.38410  -0.34457  -0.30738  -0.11878   0.01885
 Alpha virt. eigenvalues --    0.42676   0.43004   0.48715   0.65081   0.66834
 Alpha virt. eigenvalues --    0.77382   0.77385   0.80966   0.84505   0.86723
 Alpha virt. eigenvalues --    0.89701   0.93345   0.96887   1.03341   1.05066

 Mulliken charges and spin densities:
               1          2
     1  N   -0.375593   0.071376
     2  N   -0.021578   0.039713
     3  N   -0.320669   0.384336
     4  N   -0.282160   0.504575
 Sum of Mulliken charges =  -1.00000   1.00000

 Dipole moment (field-independent basis, Debye):
    X=             -0.2670    Y=             -0.6710    Z=              0.0000  Tot=              0.7221
 Quadrupole moment (field-independent basis, Debye-Ang):
   XX=            -24.9843   YY=            -40.0281   ZZ=            -23.6586
   XY=              3.1178   XZ=              0.0000   YZ=              0.0000

 34\CCSD=-218.4503313\CCSD(T)=-218.4928109\RMSD=6.580e-09\PG=CS [SG(N4)
 Normal termination of Gaussian 16 at Tue Feb 13 13:32:47 2024.
