 Gaussian 16, Revision A.03,
 Gaussian 16:  ES64L-G16RevA.03 25-Dec-2016

 -----------------------------------------------
 #p ROCCSD(T,MaxCyc=200)/cc-pVTZ SCF(MaxCyc=200)
 -----------------------------------------------

 --------
 N2_N2_47
 --------
 Symbolic Z-matrix:
 Charge = -1 Multiplicity = 2

                         Standard orientation:
 ---------------------------------------------------------------------
 Center     Atomic      Atomic             Coordinates (Angstroms)
 Number     Number       Type             X           Y           Z
 ---------------------------------------------------------------------
      1          7           0       -0.817500   -1.072500    0.000000
      2          7           0        0.272500   -1.072500    0.000000
      3          7           0        0.272500    0.527500    0.000000
      4          7           0        0.272500    1.617500    0.000000
 ---------------------------------------------------------------------

 SCF Done:  E(ROHF) =  -217.645215361     A.U. after   21 cycles
 E2 =    -0.7717606439D+00 EUMP2 =    -0.21841697600502D+03
 CCSD(T)
 CCSD(T)= -0.21846041969D+03

 The electronic state is 2-A".
 Alpha  occ. eigenvalues --  -15.45212 -15.33550 -15.30320 -15.29748  -1.24288
 Alpha  occ. eigenvalues --   -1.13696  -0.64893  -0.50792  -0.42500  -0.38982
 Alpha  occ. eigenvalues --   -0.37398  -0.33860  -0.28839  -0.12691   0.04320
 Alpha virt. eigenvalues --    0.40612   0.41923   0.50327   0.61787   0.66573
 Alpha virt. eigenvalues --    0.72374   0.77108   0.77576   0.85597   0.86209
 Alpha virt. eigenvalues --    0.93576   0.95068   0.97282   0.99651   1.04440

 Mulliken charges and spin densities:
               1          2
     1  N   -0.316023   0.037974
     2  N    0.042420   0.013266
     3  N   -0.346408   0.426707
     4  N   -0.379990   0.522053
 Sum of Mulliken charges =  -1.00000   1.00000

 Dipole moment (field-independent basis, Debye):
    X=              0.4490    Y=             -2.1781    Z=              0.0000  Tot=              2.2239
 Quadrupole moment (field-independent basis, Debye-Ang):
   XX=            -26.0164   YY=            -36.2325   ZZ=            -23.5541
   XY=             -3.0809   XZ=              0.0000   YZ=              0.0000

 Normal termination of Gaussian 16 at Tue Feb 13 13:40:09 2024.
