 Gaussian 16, Revision A.03,
 Gaussian 16:  ES64L-G16RevA.03 25-Dec-2016

 -----------------------------------------------
 #p ROCCSD(T,MaxCyc=200)/cc-pVTZ SCF(MaxCyc=200)
 -----------------------------------------------

 --------
 N2_N2_27
 --------
 Symbolic Z-matrix:
 Charge = -1 Multiplicity = 2

                         Standard orientation:
 ---------------------------------------------------------------------
 Center     Atomic      Atomic             Coordinates (Angstroms)
 Number     Number       Type             X           Y           Z
 ---------------------------------------------------------------------
      1          7           0        0.000000    0.000000    1.770000
      2          7           0        0.000000    0.000000    0.680000
      3          7           0        0.000000    0.000000   -0.680000
      4          7           0        0.000000    0.000000   -1.770000
 ---------------------------------------------------------------------

 SCF Done:  E(ROHF) =  -217.499001056     A.U. after   11 cycles
 E2 =    -0.8593966519D+00 EUMP2 =    -0.21835839770825D+03
 CCSD(T)
 CCSD(T)= -0.21836550371D+03

 Unable to determine electronic state:  an orbital has unidentified symmetry.
 Alpha  occ. eigenvalues --  -15.50082 -15.50006 -15.33504 -15.33502  -1.26248
 Alpha  occ. eigenvalues --   -1.19610  -0.87837  -0.50168  -0.48259  -0.42186
 Alpha  occ. eigenvalues --   -0.39130  -0.36457  -0.34566   0.01329   0.02332
 Alpha virt. eigenvalues --    0.41287   0.43837   0.45372   0.65290   0.65576
 Alpha virt. eigenvalues --    0.74859   0.75226   0.76057   0.84352   0.85610
 Alpha virt. eigenvalues --    0.87121   0.94705   0.95934   1.04303   1.08954

 Mulliken charges and spin densities:
               1          2
     1  N   -0.362517   0.361899
     2  N   -0.137483   0.138101
     3  N   -0.137483   0.138101
     4  N   -0.362517   0.361899
 Sum of Mulliken charges =  -1.00000   1.00000

 Dipole moment (field-independent basis, Debye):
    X=             -0.0000    Y=             -0.0000    Z=             -0.0000  Tot=              0.0000
 Quadrupole moment (field-independent basis, Debye-Ang):
   XX=            -24.6631   YY=            -23.0358   ZZ=            -46.5132
   XY=              0.0000   XZ=              0.0000   YZ=             -0.0000

 11\PMP2-0=-218.3583977\MP4SDQ=-218.3196\CCSD=-218.3129802\CCSD(T)=-218
 Normal termination of Gaussian 16 at Tue Feb 13 13:04:12 2024.
