 Gaussian 16, Revision A.03,
 Gaussian 16:  ES64L-G16RevA.03 25-Dec-2016

 -----------------------------------------------
 #p ROCCSD(T,MaxCyc=200)/cc-pVTZ SCF(MaxCyc=200)
 -----------------------------------------------

 ---------
 N2_N2_107
 ---------
 Symbolic Z-matrix:
 Charge = -1 Multiplicity = 2

                         Standard orientation:
 ---------------------------------------------------------------------
 Center     Atomic      Atomic             Coordinates (Angstroms)
 Number     Number       Type             X           Y           Z
 ---------------------------------------------------------------------
      1          7           0       -0.817500   -1.472500    0.000000
      2          7           0        0.272500   -1.472500    0.000000
      3          7           0        0.272500    0.927500    0.000000
      4          7           0        0.272500    2.017500    0.000000
 ---------------------------------------------------------------------

 SCF Done:  E(ROHF) =  -217.825945206     A.U. after   20 cycles
 E2 =    -0.7697462019D+00 EUMP2 =    -0.21859569140780D+03
 CCSD(T)
 CCSD(T)= -0.21863088571D+03

 The electronic state is 2-A'.
 Alpha  occ. eigenvalues --  -15.41961 -15.40674 -15.34820 -15.34375  -1.22836
 Alpha  occ. eigenvalues --   -1.16924  -0.55313  -0.50060  -0.41944  -0.40060
 Alpha  occ. eigenvalues --   -0.37298  -0.35112  -0.31561  -0.31531   0.10144
 Alpha virt. eigenvalues --    0.34407   0.39420   0.44063   0.63094   0.64302
 Alpha virt. eigenvalues --    0.75651   0.77600   0.79482   0.81293   0.83253
 Alpha virt. eigenvalues --    0.89054   0.89901   0.95587   0.96869   0.99421

 Mulliken charges and spin densities:
               1          2
     1  N   -0.357535   0.295085
     2  N   -0.269356   0.336410
     3  N   -0.148973   0.207292
     4  N   -0.224135   0.161212
 Sum of Mulliken charges =  -1.00000   1.00000

 Dipole moment (field-independent basis, Debye):
    X=              0.4899    Y=              1.5174    Z=              0.0000  Tot=              1.5945
 Quadrupole moment (field-independent basis, Debye-Ang):
   XX=            -27.3488   YY=            -39.0027   ZZ=            -22.5356
   XY=             -2.1822   XZ=              0.0000   YZ=              0.0000

 31\CCSD(T)=-218.6308857\RMSD=5.324e-09\PG=CS [SG(N4)]\\@
 Normal termination of Gaussian 16 at Tue Feb 13 15:11:25 2024.
