 Gaussian 16, Revision A.03,
 Gaussian 16:  ES64L-G16RevA.03 25-Dec-2016

 -----------------------------------------------
 #p ROCCSD(T,MaxCyc=200)/cc-pVTZ SCF(MaxCyc=200)
 -----------------------------------------------

 ---------
 N2_N2_260
 ---------
 Symbolic Z-matrix:
 Charge = -1 Multiplicity = 2

                         Standard orientation:
 ---------------------------------------------------------------------
 Center     Atomic      Atomic             Coordinates (Angstroms)
 Number     Number       Type             X           Y           Z
 ---------------------------------------------------------------------
      1          7           0       -0.817500   -2.492500    0.000000
      2          7           0        0.272500   -2.492500    0.000000
      3          7           0        0.272500    1.947500    0.000000
      4          7           0        0.272500    3.037500    0.000000
 ---------------------------------------------------------------------

 SCF Done:  E(ROHF) =  -217.821769762     A.U. after   15 cycles
 E2 =    -0.7696119140D+00 EUMP2 =    -0.21859138167628D+03
 CCSD(T)
 CCSD(T)= -0.21862192407D+03

 The electronic state is 2-A'.
 Alpha  occ. eigenvalues --  -15.41898 -15.41384 -15.41207 -15.40861  -1.23359
 Alpha  occ. eigenvalues --   -1.22742  -0.55515  -0.55119  -0.41999  -0.41533
 Alpha  occ. eigenvalues --   -0.39979  -0.39535  -0.37827  -0.37260   0.13062
 Alpha virt. eigenvalues --    0.24161   0.38522   0.38920   0.59838   0.60867
 Alpha virt. eigenvalues --    0.73093   0.75658   0.76047   0.76183   0.76820
 Alpha virt. eigenvalues --    0.80415   0.88739   0.89829   0.90980   0.93079

 Mulliken charges and spin densities:
               1          2
     1  N   -0.258735   0.253233
     2  N   -0.249463   0.255235
     3  N   -0.232448   0.252719
     4  N   -0.259354   0.238813
 Sum of Mulliken charges =  -1.00000   1.00000

 Dipole moment (field-independent basis, Debye):
    X=              0.0352    Y=              0.0894    Z=              0.0000  Tot=              0.0961
 Quadrupole moment (field-independent basis, Debye-Ang):
   XX=            -26.9066   YY=            -57.7995   ZZ=            -22.4861
   XY=             -3.4387   XZ=              0.0000   YZ=              0.0000

 34\CCSD(T)=-218.6219241\RMSD=5.071e-09\PG=CS [SG(N4)]\\@
 Normal termination of Gaussian 16 at Tue Feb 13 19:16:32 2024.
