 Gaussian 16, Revision A.03,
 Gaussian 16:  ES64L-G16RevA.03 25-Dec-2016

 -----------------------------------------------
 #p ROCCSD(T,MaxCyc=200)/cc-pVTZ SCF(MaxCyc=200)
 -----------------------------------------------

 --------
 N2_N2_75
 --------
 Symbolic Z-matrix:
 Charge = -1 Multiplicity = 2

                         Standard orientation:
 ---------------------------------------------------------------------
 Center     Atomic      Atomic             Coordinates (Angstroms)
 Number     Number       Type             X           Y           Z
 ---------------------------------------------------------------------
      1          7           0        0.000000    0.000000    2.090000
      2          7           0        0.000000    0.000000    1.000000
      3          7           0        0.000000    0.000000   -1.000000
      4          7           0        0.000000    0.000000   -2.090000
 ---------------------------------------------------------------------

 SCF Done:  E(ROHF) =  -217.778120364     A.U. after   12 cycles
 E2 =    -0.7729922600D+00 EUMP2 =    -0.21855111262371D+03
 CCSD(T)
 CCSD(T)= -0.21858425802D+03

 Unable to determine electronic state:  an orbital has unidentified symmetry.
 Alpha  occ. eigenvalues --  -15.36922 -15.36921 -15.36417 -15.36416  -1.19563
 Alpha  occ. eigenvalues --   -1.18892  -0.59465  -0.47822  -0.40495  -0.39416
 Alpha  occ. eigenvalues --   -0.36502  -0.34799  -0.32811  -0.25720   0.09511
 Alpha virt. eigenvalues --    0.36282   0.38560   0.46877   0.63288   0.65584
 Alpha virt. eigenvalues --    0.77123   0.77317   0.82208   0.83161   0.89216
 Alpha virt. eigenvalues --    0.91206   0.94144   0.96599   1.02722   1.08562

 Mulliken charges and spin densities:
               1          2
     1  N   -0.239658   0.228549
     2  N   -0.260342   0.271451
     3  N   -0.260342   0.271451
     4  N   -0.239658   0.228549
 Sum of Mulliken charges =  -1.00000   1.00000

 Dipole moment (field-independent basis, Debye):
    X=             -0.0000    Y=              0.0000    Z=              0.0000  Tot=              0.0000
 Quadrupole moment (field-independent basis, Debye-Ang):
   XX=            -22.5709   YY=            -24.4914   ZZ=            -43.7457
   XY=              0.0000   XZ=              0.0000   YZ=             -0.0000

 4\PMP2-0=-218.5511126\MP4SDQ=-218.549401\CCSD=-218.5453626\CCSD(T)=-21
 Normal termination of Gaussian 16 at Tue Feb 13 14:28:56 2024.
