 Gaussian 16, Revision A.03,
 Gaussian 16:  ES64L-G16RevA.03 25-Dec-2016

 -----------------------------------------------
 #p ROCCSD(T,MaxCyc=200)/cc-pVTZ SCF(MaxCyc=200)
 -----------------------------------------------

 --------
 N2_N2_50
 --------
 Symbolic Z-matrix:
 Charge = -1 Multiplicity = 2

                         Standard orientation:
 ---------------------------------------------------------------------
 Center     Atomic      Atomic             Coordinates (Angstroms)
 Number     Number       Type             X           Y           Z
 ---------------------------------------------------------------------
      1          7           0       -0.817500   -1.092500    0.000000
      2          7           0        0.272500   -1.092500    0.000000
      3          7           0        0.272500    0.547500    0.000000
      4          7           0        0.272500    1.637500    0.000000
 ---------------------------------------------------------------------

 SCF Done:  E(ROHF) =  -217.662104940     A.U. after   26 cycles
 E2 =    -0.7726731359D+00 EUMP2 =    -0.21843477807554D+03
 CCSD(T)
 CCSD(T)= -0.21847699152D+03

 The electronic state is 2-A".
 Alpha  occ. eigenvalues --  -15.45340 -15.34905 -15.29707 -15.28721  -1.24137
 Alpha  occ. eigenvalues --   -1.13229  -0.63638  -0.50937  -0.41808  -0.38837
 Alpha  occ. eigenvalues --   -0.37848  -0.34014  -0.28302  -0.14028   0.04935
 Alpha virt. eigenvalues --    0.40102   0.41277   0.50333   0.61601   0.66785
 Alpha virt. eigenvalues --    0.72451   0.76823   0.77514   0.85750   0.86271
 Alpha virt. eigenvalues --    0.93811   0.94702   0.97225   0.99826   1.04404

 Mulliken charges and spin densities:
               1          2
     1  N   -0.278692   0.035832
     2  N    0.043990   0.015000
     3  N   -0.383074   0.433511
     4  N   -0.382224   0.515657
 Sum of Mulliken charges =  -1.00000   1.00000

 Dipole moment (field-independent basis, Debye):
    X=              0.2699    Y=             -2.5094    Z=              0.0000  Tot=              2.5238
 Quadrupole moment (field-independent basis, Debye-Ang):
   XX=            -25.8418   YY=            -36.2667   ZZ=            -23.6409
   XY=             -2.9990   XZ=              0.0000   YZ=              0.0000

 53\CCSD(T)=-218.4769915\RMSD=6.477e-09\PG=CS [SG(N4)]\\@
 Normal termination of Gaussian 16 at Tue Feb 13 13:45:37 2024.
