 Gaussian 16, Revision A.03,
 Gaussian 16:  ES64L-G16RevA.03 25-Dec-2016

 -----------------------------------------------
 #p ROCCSD(T,MaxCyc=200)/cc-pVTZ SCF(MaxCyc=200)
 -----------------------------------------------

 --------
 N2_N2_39
 --------
 Symbolic Z-matrix:
 Charge = -1 Multiplicity = 2

                         Standard orientation:
 ---------------------------------------------------------------------
 Center     Atomic      Atomic             Coordinates (Angstroms)
 Number     Number       Type             X           Y           Z
 ---------------------------------------------------------------------
      1          7           0        0.000000    0.000000    1.850000
      2          7           0        0.000000    0.000000    0.760000
      3          7           0        0.000000    0.000000   -0.760000
      4          7           0        0.000000    0.000000   -1.850000
 ---------------------------------------------------------------------

 SCF Done:  E(ROHF) =  -217.530806610     A.U. after   13 cycles
 E2 =    -0.7988245074D+00 EUMP2 =    -0.21832963111717D+03
 CCSD(T)
 CCSD(T)= -0.21836030926D+03

 Unable to determine electronic state:  an orbital has unidentified symmetry.
 Alpha  occ. eigenvalues --  -15.33872 -15.33872 -15.32967 -15.32953  -1.18812
 Alpha  occ. eigenvalues --   -1.16154  -0.73049  -0.44428  -0.40639  -0.40497
 Alpha  occ. eigenvalues --   -0.35496  -0.33514  -0.29067  -0.04732   0.05692
 Alpha virt. eigenvalues --    0.37183   0.43351   0.52157   0.63345   0.64767
 Alpha virt. eigenvalues --    0.78565   0.78747   0.83622   0.84071   0.85812
 Alpha virt. eigenvalues --    0.90401   0.97446   0.99769   1.05471   1.12540

 Mulliken charges and spin densities:
               1          2
     1  N   -0.058600   0.257373
     2  N   -0.441400   0.242627
     3  N   -0.441400   0.242627
     4  N   -0.058600   0.257373
 Sum of Mulliken charges =  -1.00000   1.00000

 Dipole moment (field-independent basis, Debye):
    X=             -0.0000    Y=              0.0000    Z=             -0.0000  Tot=              0.0000
 Quadrupole moment (field-independent basis, Debye-Ang):
   XX=            -24.2408   YY=            -22.5387   ZZ=            -41.3946
   XY=              0.0000   XZ=              0.0000   YZ=             -0.0000

 66\PMP2-0=-218.3296311\MP4SDQ=-218.3230555\CCSD=-218.3176687\CCSD(T)=-
 Normal termination of Gaussian 16 at Tue Feb 13 13:25:26 2024.
