 Gaussian 16, Revision A.03,
 Gaussian 16:  ES64L-G16RevA.03 25-Dec-2016

 -----------------------------------------------
 #p ROCCSD(T,MaxCyc=200)/cc-pVTZ SCF(MaxCyc=200)
 -----------------------------------------------

 --------
 N2_N2_41
 --------
 Symbolic Z-matrix:
 Charge = -1 Multiplicity = 2

                         Standard orientation:
 ---------------------------------------------------------------------
 Center     Atomic      Atomic             Coordinates (Angstroms)
 Number     Number       Type             X           Y           Z
 ---------------------------------------------------------------------
      1          7           0       -0.817500   -1.032500    0.000000
      2          7           0        0.272500   -1.032500    0.000000
      3          7           0        0.272500    0.487500    0.000000
      4          7           0        0.272500    1.577500    0.000000
 ---------------------------------------------------------------------

 SCF Done:  E(ROHF) =  -217.611931704     A.U. after   19 cycles
 E2 =    -0.7687629449D+00 EUMP2 =    -0.21838069464852D+03
 CCSD(T)
 CCSD(T)= -0.21842656612D+03

 The electronic state is 2-A".
 Alpha  occ. eigenvalues --  -15.44801 -15.32567 -15.31585 -15.30849  -1.25154
 Alpha  occ. eigenvalues --   -1.14648  -0.67702  -0.50653  -0.44377  -0.39742
 Alpha  occ. eigenvalues --   -0.36138  -0.33465  -0.30010  -0.10034   0.02975
 Alpha virt. eigenvalues --    0.41641   0.43220   0.50641   0.62127   0.66076
 Alpha virt. eigenvalues --    0.72292   0.77517   0.77695   0.85263   0.86027
 Alpha virt. eigenvalues --    0.93143   0.95801   0.97261   0.99174   1.04294

 Mulliken charges and spin densities:
               1          2
     1  N   -0.402357   0.043788
     2  N    0.033797   0.010588
     3  N   -0.254383   0.408690
     4  N   -0.377057   0.536935
 Sum of Mulliken charges =  -1.00000   1.00000

 Dipole moment (field-independent basis, Debye):
    X=              0.8372    Y=             -1.4841    Z=              0.0000  Tot=              1.7039
 Quadrupole moment (field-independent basis, Debye-Ang):
   XX=            -26.4189   YY=            -36.2150   ZZ=            -23.3564
   XY=             -3.2332   XZ=              0.0000   YZ=              0.0000

 46\CCSD(T)=-218.4265661\RMSD=9.513e-09\PG=CS [SG(N4)]\\@
 Normal termination of Gaussian 16 at Tue Feb 13 13:29:15 2024.
