 Gaussian 16, Revision A.03,
 Gaussian 16:  ES64L-G16RevA.03 25-Dec-2016

 -----------------------------------------------
 #p ROCCSD(T,MaxCyc=200)/cc-pVTZ SCF(MaxCyc=200)
 -----------------------------------------------

 ---------
 N2_N2_118
 ---------
 Symbolic Z-matrix:
 Charge = -1 Multiplicity = 2

                         Standard orientation:
 ---------------------------------------------------------------------
 Center     Atomic      Atomic             Coordinates (Angstroms)
 Number     Number       Type             X           Y           Z
 ---------------------------------------------------------------------
      1          7           0        0.578060   -2.130560   -0.000000
      2          7           0       -0.192687   -1.359813   -0.000000
      3          7           0       -0.192687    1.200186    0.000000
      4          7           0       -0.192687    2.290187    0.000000
 ---------------------------------------------------------------------

 SCF Done:  E(ROHF) =  -217.826325796     A.U. after   18 cycles
 E2 =    -0.7691689138D+00 EUMP2 =    -0.21859549470990D+03
 CCSD(T)
 CCSD(T)= -0.21862885853D+03

 The electronic state is 2-A".
 Alpha  occ. eigenvalues --  -15.40864 -15.39871 -15.38304 -15.37108  -1.22058
 Alpha  occ. eigenvalues --   -1.19656  -0.55282  -0.51187  -0.40414  -0.39792
 Alpha  occ. eigenvalues --   -0.38461  -0.36568  -0.35359  -0.33032   0.11559
 Alpha virt. eigenvalues --    0.30758   0.39709   0.42923   0.64388   0.65329
 Alpha virt. eigenvalues --    0.74621   0.75519   0.80524   0.80625   0.83246
 Alpha virt. eigenvalues --    0.87020   0.89729   0.91309   0.99280   1.01118

 Mulliken charges and spin densities:
               1          2
     1  N   -0.286339   0.256711
     2  N   -0.256123   0.285883
     3  N   -0.212693   0.248228
     4  N   -0.244845   0.209179
 Sum of Mulliken charges =  -1.00000   1.00000

 Dipole moment (field-independent basis, Debye):
    X=             -0.2161    Y=              0.6515    Z=              0.0000  Tot=              0.6864
 Quadrupole moment (field-independent basis, Debye-Ang):
   XX=            -24.4484   YY=            -44.0979   ZZ=            -24.4526
   XY=              3.5763   XZ=             -0.0000   YZ=             -0.0000

 781\CCSD=-218.5903361\CCSD(T)=-218.6288585\RMSD=3.926e-09\PG=CS [SG(N4
 Normal termination of Gaussian 16 at Tue Feb 13 15:28:26 2024.
