 Gaussian 16, Revision A.03,
 Gaussian 16:  ES64L-G16RevA.03 25-Dec-2016

 -----------------------------------------------
 #p ROCCSD(T,MaxCyc=200)/cc-pVTZ SCF(MaxCyc=200)
 -----------------------------------------------

 ---------
 N2_N2_230
 ---------
 Symbolic Z-matrix:
 Charge = -1 Multiplicity = 2

                         Standard orientation:
 ---------------------------------------------------------------------
 Center     Atomic      Atomic             Coordinates (Angstroms)
 Number     Number       Type             X           Y           Z
 ---------------------------------------------------------------------
      1          7           0       -0.817500   -2.292500    0.000000
      2          7           0        0.272500   -2.292500    0.000000
      3          7           0        0.272500    1.747500    0.000000
      4          7           0        0.272500    2.837500    0.000000
 ---------------------------------------------------------------------

 SCF Done:  E(ROHF) =  -217.823658324     A.U. after   16 cycles
 E2 =    -0.7692741561D+00 EUMP2 =    -0.21859293248002D+03
 CCSD(T)
 CCSD(T)= -0.21862423933D+03

 The electronic state is 2-A'.
 Alpha  occ. eigenvalues --  -15.41637 -15.41034 -15.40783 -15.40438  -1.23032
 Alpha  occ. eigenvalues --   -1.22287  -0.55138  -0.54672  -0.41607  -0.41081
 Alpha  occ. eigenvalues --   -0.39612  -0.39047  -0.37495  -0.36814   0.12880
 Alpha virt. eigenvalues --    0.25312   0.38876   0.39361   0.59314   0.61330
 Alpha virt. eigenvalues --    0.72086   0.75911   0.76294   0.76504   0.77459
 Alpha virt. eigenvalues --    0.82851   0.88987   0.89652   0.93634   0.94197

 Mulliken charges and spin densities:
               1          2
     1  N   -0.262382   0.253779
     2  N   -0.247500   0.256655
     3  N   -0.233242   0.253899
     4  N   -0.256876   0.235668
 Sum of Mulliken charges =  -1.00000   1.00000

 Dipole moment (field-independent basis, Debye):
    X=              0.0445    Y=              0.0993    Z=              0.0000  Tot=              0.1088
 Quadrupole moment (field-independent basis, Debye-Ang):
   XX=            -26.9523   YY=            -53.2153   ZZ=            -22.4941
   XY=             -3.1974   XZ=              0.0000   YZ=              0.0000

 477\CCSD(T)=-218.6242393\RMSD=2.788e-09\PG=CS [SG(N4)]\\@
 Normal termination of Gaussian 16 at Tue Feb 13 18:20:04 2024.
