 Gaussian 16, Revision A.03,
 Gaussian 16:  ES64L-G16RevA.03 25-Dec-2016

 -----------------------------------------------
 #p ROCCSD(T,MaxCyc=200)/cc-pVTZ SCF(MaxCyc=200)
 -----------------------------------------------

 --------
 N2_N2_65
 --------
 Symbolic Z-matrix:
 Charge = -1 Multiplicity = 2

                         Standard orientation:
 ---------------------------------------------------------------------
 Center     Atomic      Atomic             Coordinates (Angstroms)
 Number     Number       Type             X           Y           Z
 ---------------------------------------------------------------------
      1          7           0       -0.817500   -1.192500    0.000000
      2          7           0        0.272500   -1.192500    0.000000
      3          7           0        0.272500    0.647500    0.000000
      4          7           0        0.272500    1.737500    0.000000
 ---------------------------------------------------------------------

 SCF Done:  E(ROHF) =  -217.744011389     A.U. after   18 cycles
 E2 =    -0.7784292604D+00 EUMP2 =    -0.21852244064905D+03
 CCSD(T)
 CCSD(T)= -0.21855741317D+03

 The electronic state is 2-A'.
 Alpha  occ. eigenvalues --  -15.41716 -15.38739 -15.30461 -15.29890  -1.22573
 Alpha  occ. eigenvalues --   -1.14019  -0.58738  -0.51713  -0.39504  -0.38496
 Alpha  occ. eigenvalues --   -0.37182  -0.35628  -0.28448  -0.20421   0.07072
 Alpha virt. eigenvalues --    0.39511   0.41209   0.46652   0.61411   0.67106
 Alpha virt. eigenvalues --    0.73634   0.76555   0.77760   0.84069   0.86089
 Alpha virt. eigenvalues --    0.93822   0.95116   0.96739   1.02742   1.03457

 Mulliken charges and spin densities:
               1          2
     1  N   -0.200126   0.062272
     2  N   -0.059804   0.132081
     3  N   -0.387302   0.405083
     4  N   -0.352768   0.400564
 Sum of Mulliken charges =  -1.00000   1.00000

 Dipole moment (field-independent basis, Debye):
    X=             -0.1537    Y=             -2.4129    Z=              0.0000  Tot=              2.4177
 Quadrupole moment (field-independent basis, Debye-Ang):
   XX=            -26.7591   YY=            -36.8818   ZZ=            -22.3995
   XY=             -2.2522   XZ=              0.0000   YZ=              0.0000

 23\CCSD(T)=-218.5574132\RMSD=7.503e-09\PG=CS [SG(N4)]\\@
 Normal termination of Gaussian 16 at Tue Feb 13 14:11:36 2024.
