 Gaussian 16, Revision A.03,
 Gaussian 16:  ES64L-G16RevA.03 25-Dec-2016

 -----------------------------------------------
 #p ROCCSD(T,MaxCyc=200)/cc-pVTZ SCF(MaxCyc=200)
 -----------------------------------------------

 -------
 N2_N2_8
 -------
 Symbolic Z-matrix:
 Charge = -1 Multiplicity = 2

                         Standard orientation:
 ---------------------------------------------------------------------
 Center     Atomic      Atomic             Coordinates (Angstroms)
 Number     Number       Type             X           Y           Z
 ---------------------------------------------------------------------
      1          7           0       -0.817500   -0.812500    0.000000
      2          7           0        0.272500   -0.812500    0.000000
      3          7           0        0.272500    0.267500    0.000000
      4          7           0        0.272500    1.357500    0.000000
 ---------------------------------------------------------------------

 SCF Done:  E(ROHF) =  -217.428062536     A.U. after   18 cycles
 E2 =    -0.7936884593D+00 EUMP2 =    -0.21822175099529D+03
 CCSD(T)
 CCSD(T)= -0.21824621971D+03

 The electronic state is 2-A".
 Alpha  occ. eigenvalues --  -15.51372 -15.37314 -15.33058 -15.26531  -1.47002
 Alpha  occ. eigenvalues --   -1.17775  -0.87465  -0.59543  -0.56988  -0.40703
 Alpha  occ. eigenvalues --   -0.36692  -0.29580  -0.28895  -0.02806  -0.00798
 Alpha virt. eigenvalues --    0.45507   0.46215   0.60281   0.63307   0.67425
 Alpha virt. eigenvalues --    0.75145   0.76249   0.78219   0.84944   0.86210
 Alpha virt. eigenvalues --    0.91005   0.91273   1.00513   1.01501   1.03165

 Mulliken charges and spin densities:
               1          2
     1  N   -0.758328   0.671901
     2  N    0.029215   0.073940
     3  N    0.193450   0.090545
     4  N   -0.464338   0.163614
 Sum of Mulliken charges =  -1.00000   1.00000

 Dipole moment (field-independent basis, Debye):
    X=              1.8963    Y=              0.0522    Z=              0.0000  Tot=              1.8971
 Quadrupole moment (field-independent basis, Debye-Ang):
   XX=            -28.3320   YY=            -34.6252   ZZ=            -22.5405
   XY=             -3.0379   XZ=              0.0000   YZ=              0.0000

 CCSD(T)=-218.2462197\RMSD=3.880e-09\PG=CS [SG(N4)]\\@
 Normal termination of Gaussian 16 at Tue Feb 13 12:33:28 2024.
