 Gaussian 16, Revision A.03,
 Gaussian 16:  ES64L-G16RevA.03 25-Dec-2016

 -----------------------------------------------
 #p ROCCSD(T,MaxCyc=200)/cc-pVTZ SCF(MaxCyc=200)
 -----------------------------------------------

 --------
 N2_N2_21
 --------
 Symbolic Z-matrix:
 Charge = -1 Multiplicity = 2

                         Standard orientation:
 ---------------------------------------------------------------------
 Center     Atomic      Atomic             Coordinates (Angstroms)
 Number     Number       Type             X           Y           Z
 ---------------------------------------------------------------------
      1          7           0        0.000000    0.000000    1.730000
      2          7           0        0.000000    0.000000    0.640000
      3          7           0        0.000000    0.000000   -0.640000
      4          7           0        0.000000    0.000000   -1.730000
 ---------------------------------------------------------------------

 SCF Done:  E(ROHF) =  -217.537744981     A.U. after   11 cycles
 E2 =    -0.8419106126D+00 EUMP2 =    -0.21837965559351D+03
 CCSD(T)
 CCSD(T)= -0.21839030630D+03

 Unable to determine electronic state:  an orbital has unidentified symmetry.
 Alpha  occ. eigenvalues --  -15.49252 -15.49146 -15.32524 -15.32522  -1.27706
 Alpha  occ. eigenvalues --   -1.19002  -0.92326  -0.51719  -0.49789  -0.41402
 Alpha  occ. eigenvalues --   -0.38850  -0.35427  -0.33520   0.00540   0.01511
 Alpha virt. eigenvalues --    0.43489   0.46112   0.52062   0.65653   0.66165
 Alpha virt. eigenvalues --    0.73457   0.74847   0.76006   0.84830   0.85667
 Alpha virt. eigenvalues --    0.86128   0.94753   0.95969   1.04650   1.09639

 Mulliken charges and spin densities:
               1          2
     1  N   -0.343324   0.374797
     2  N   -0.156676   0.125203
     3  N   -0.156676   0.125203
     4  N   -0.343324   0.374797
 Sum of Mulliken charges =  -1.00000   1.00000

 Dipole moment (field-independent basis, Debye):
    X=             -0.0000    Y=             -0.0000    Z=             -0.0000  Tot=              0.0000
 Quadrupole moment (field-independent basis, Debye-Ang):
   XX=            -24.4544   YY=            -22.8640   ZZ=            -46.4745
   XY=              0.0000   XZ=              0.0000   YZ=             -0.0000

 5\PMP2-0=-218.3796556\MP4SDQ=-218.3472514\CCSD=-218.341347\CCSD(T)=-21
 Normal termination of Gaussian 16 at Tue Feb 13 12:54:01 2024.
