 Gaussian 16, Revision A.03,
 Gaussian 16:  ES64L-G16RevA.03 25-Dec-2016

 -----------------------------------------------
 #p ROCCSD(T,MaxCyc=200)/cc-pVTZ SCF(MaxCyc=200)
 -----------------------------------------------

 ---------
 N2_N2_161
 ---------
 Symbolic Z-matrix:
 Charge = -1 Multiplicity = 2

                         Standard orientation:
 ---------------------------------------------------------------------
 Center     Atomic      Atomic             Coordinates (Angstroms)
 Number     Number       Type             X           Y           Z
 ---------------------------------------------------------------------
      1          7           0       -0.817500   -1.832500    0.000000
      2          7           0        0.272500   -1.832500    0.000000
      3          7           0        0.272500    1.287500    0.000000
      4          7           0        0.272500    2.377500    0.000000
 ---------------------------------------------------------------------

 SCF Done:  E(ROHF) =  -217.831495960     A.U. after   17 cycles
 E2 =    -0.7686026921D+00 EUMP2 =    -0.21860009865181D+03
 CCSD(T)
 CCSD(T)= -0.21863304702D+03

 The electronic state is 2-A'.
 Alpha  occ. eigenvalues --  -15.41274 -15.40252 -15.39071 -15.38708  -1.22363
 Alpha  occ. eigenvalues --   -1.20530  -0.54345  -0.53020  -0.40592  -0.40280
 Alpha  occ. eigenvalues --   -0.38326  -0.36811  -0.36793  -0.35102   0.11909
 Alpha virt. eigenvalues --    0.29335   0.39615   0.41008   0.61535   0.64265
 Alpha virt. eigenvalues --    0.73054   0.75750   0.76300   0.78297   0.80042
 Alpha virt. eigenvalues --    0.83177   0.88802   0.90161   0.95125   0.97190

 Mulliken charges and spin densities:
               1          2
     1  N   -0.287223   0.261057
     2  N   -0.242328   0.269025
     3  N   -0.226342   0.253324
     4  N   -0.244106   0.216594
 Sum of Mulliken charges =  -1.00000   1.00000

 Dipole moment (field-independent basis, Debye):
    X=              0.1450    Y=              0.3553    Z=              0.0000  Tot=              0.3838
 Quadrupole moment (field-independent basis, Debye-Ang):
   XX=            -27.1313   YY=            -44.1705   ZZ=            -22.5197
   XY=             -2.6092   XZ=              0.0000   YZ=              0.0000

 \CCSD(T)=-218.633047\RMSD=2.175e-09\PG=CS [SG(N4)]\\@
 Normal termination of Gaussian 16 at Tue Feb 13 16:34:53 2024.
