 Gaussian 16, Revision A.03,
 Gaussian 16:  ES64L-G16RevA.03 25-Dec-2016

 -----------------------------------------------
 #p ROCCSD(T,MaxCyc=200)/cc-pVTZ SCF(MaxCyc=200)
 -----------------------------------------------

 ---------
 N2_N2_297
 ---------
 Symbolic Z-matrix:
 Charge = -1 Multiplicity = 2

                         Standard orientation:
 ---------------------------------------------------------------------
 Center     Atomic      Atomic             Coordinates (Angstroms)
 Number     Number       Type             X           Y           Z
 ---------------------------------------------------------------------
      1          7           0        0.000000    0.000000    3.570000
      2          7           0        0.000000    0.000000    2.480000
      3          7           0        0.000000    0.000000   -2.480000
      4          7           0        0.000000    0.000000   -3.570000
 ---------------------------------------------------------------------

 SCF Done:  E(ROHF) =  -217.819554156     A.U. after   11 cycles
 E2 =    -0.7702927218D+00 EUMP2 =    -0.21858984687782D+03
 CCSD(T)
 CCSD(T)= -0.21861991566D+03

 Unable to determine electronic state:  an orbital has unidentified symmetry.
 Alpha  occ. eigenvalues --  -15.42252 -15.42252 -15.41828 -15.41828  -1.23802
 Alpha  occ. eigenvalues --   -1.23799  -0.56078  -0.55998  -0.42644  -0.42479
 Alpha  occ. eigenvalues --   -0.40510  -0.40441  -0.38279  -0.38276   0.13281
 Alpha virt. eigenvalues --    0.22284   0.37982   0.38053   0.57386   0.62873
 Alpha virt. eigenvalues --    0.73788   0.75442   0.75552   0.75734   0.75809
 Alpha virt. eigenvalues --    0.77202   0.88301   0.88384   0.90690   0.91050

 Mulliken charges and spin densities:
               1          2
     1  N   -0.261362   0.245273
     2  N   -0.238638   0.254727
     3  N   -0.238638   0.254727
     4  N   -0.261362   0.245273
 Sum of Mulliken charges =  -1.00000   1.00000

 Dipole moment (field-independent basis, Debye):
    X=             -0.0000    Y=              0.0000    Z=              0.0000  Tot=              0.0000
 Quadrupole moment (field-independent basis, Debye-Ang):
   XX=            -24.2517   YY=            -22.4807   ZZ=            -74.6152
   XY=              0.0000   XZ=              0.0000   YZ=             -0.0000

 Normal termination of Gaussian 16 at Tue Feb 13 20:54:00 2024.
