 Gaussian 16, Revision A.03,
 Gaussian 16:  ES64L-G16RevA.03 25-Dec-2016

 -----------------------------------------------
 #p ROCCSD(T,MaxCyc=200)/cc-pVTZ SCF(MaxCyc=200)
 -----------------------------------------------

 ---------
 N2_N2_132
 ---------
 Symbolic Z-matrix:
 Charge = -1 Multiplicity = 2

                         Standard orientation:
 ---------------------------------------------------------------------
 Center     Atomic      Atomic             Coordinates (Angstroms)
 Number     Number       Type             X           Y           Z
 ---------------------------------------------------------------------
      1          7           0        0.000000    0.000000    2.470000
      2          7           0        0.000000    0.000000    1.380000
      3          7           0        0.000000    0.000000   -1.380000
      4          7           0        0.000000    0.000000   -2.470000
 ---------------------------------------------------------------------

 SCF Done:  E(ROHF) =  -217.826824782     A.U. after   11 cycles
 E2 =    -0.7682367764D+00 EUMP2 =    -0.21859506155834D+03
 CCSD(T)
 CCSD(T)= -0.21862784397D+03

 Unable to determine electronic state:  an orbital has unidentified symmetry.
 Alpha  occ. eigenvalues --  -15.39983 -15.39982 -15.39061 -15.39061  -1.21382
 Alpha  occ. eigenvalues --   -1.21280  -0.54858  -0.52091  -0.40346  -0.39532
 Alpha  occ. eigenvalues --   -0.39379  -0.35982  -0.35618  -0.35596   0.11969
 Alpha virt. eigenvalues --    0.29614   0.38881   0.42350   0.63865   0.66208
 Alpha virt. eigenvalues --    0.75598   0.75952   0.79003   0.79561   0.80015
 Alpha virt. eigenvalues --    0.89743   0.89946   0.90243   0.92576   1.01693

 Mulliken charges and spin densities:
               1          2
     1  N   -0.255168   0.231215
     2  N   -0.244832   0.268785
     3  N   -0.244832   0.268785
     4  N   -0.255168   0.231215
 Sum of Mulliken charges =  -1.00000   1.00000

 Dipole moment (field-independent basis, Debye):
    X=             -0.0000    Y=              0.0000    Z=              0.0000  Tot=              0.0000
 Quadrupole moment (field-independent basis, Debye-Ang):
   XX=            -24.4707   YY=            -22.5449   ZZ=            -49.1396
   XY=              0.0000   XZ=              0.0000   YZ=             -0.0000

 Normal termination of Gaussian 16 at Tue Feb 13 15:49:16 2024.
