 Gaussian 16, Revision A.03,
 Gaussian 16:  ES64L-G16RevA.03 25-Dec-2016

 -----------------------------------------------
 #p ROCCSD(T,MaxCyc=200)/cc-pVTZ SCF(MaxCyc=200)
 -----------------------------------------------

 ---------
 N2_N2_238
 ---------
 Symbolic Z-matrix:
 Charge = -1 Multiplicity = 2

                         Standard orientation:
 ---------------------------------------------------------------------
 Center     Atomic      Atomic             Coordinates (Angstroms)
 Number     Number       Type             X           Y           Z
 ---------------------------------------------------------------------
      1          7           0        0.578060   -2.930560   -0.000000
      2          7           0       -0.192687   -2.159813   -0.000000
      3          7           0       -0.192687    2.000186    0.000000
      4          7           0       -0.192687    3.090187    0.000000
 ---------------------------------------------------------------------

 SCF Done:  E(ROHF) =  -217.820893935     A.U. after   15 cycles
 E2 =    -0.7698328189D+00 EUMP2 =    -0.21859072675389D+03
 CCSD(T)
 CCSD(T)= -0.21862133308D+03

 The electronic state is 2-A".
 Alpha  occ. eigenvalues --  -15.41776 -15.41374 -15.41274 -15.40895  -1.23264
 Alpha  occ. eigenvalues --   -1.22881  -0.55475  -0.55111  -0.41992  -0.41636
 Alpha  occ. eigenvalues --   -0.39934  -0.39545  -0.37734  -0.37328   0.13144
 Alpha virt. eigenvalues --    0.23967   0.38555   0.38841   0.56939   0.63941
 Alpha virt. eigenvalues --    0.72654   0.75876   0.75950   0.76522   0.76787
 Alpha virt. eigenvalues --    0.81745   0.88781   0.89631   0.90638   0.92665

 Mulliken charges and spin densities:
               1          2
     1  N   -0.265916   0.247174
     2  N   -0.238656   0.257533
     3  N   -0.237388   0.254244
     4  N   -0.258039   0.241049
 Sum of Mulliken charges =  -1.00000   1.00000

 Dipole moment (field-independent basis, Debye):
    X=             -0.0799    Y=              0.0709    Z=             -0.0000  Tot=              0.1068
 Quadrupole moment (field-independent basis, Debye-Ang):
   XX=            -24.2694   YY=            -60.1332   ZZ=            -24.2782
   XY=              4.1665   XZ=              0.0000   YZ=             -0.0000

 66315\CCSD=-218.5835956\CCSD(T)=-218.6213331\RMSD=7.513e-09\PG=CS [SG(
 Normal termination of Gaussian 16 at Tue Feb 13 18:34:08 2024.
