 Gaussian 16, Revision A.03,
 Gaussian 16:  ES64L-G16RevA.03 25-Dec-2016

 -----------------------------------------------
 #p ROCCSD(T,MaxCyc=200)/cc-pVTZ SCF(MaxCyc=200)
 -----------------------------------------------

 ---------
 N2_N2_160
 ---------
 Symbolic Z-matrix:
 Charge = -1 Multiplicity = 2

                         Standard orientation:
 ---------------------------------------------------------------------
 Center     Atomic      Atomic             Coordinates (Angstroms)
 Number     Number       Type             X           Y           Z
 ---------------------------------------------------------------------
      1          7           0        0.578060   -2.410560    0.000000
      2          7           0       -0.192687   -1.639814    0.000000
      3          7           0       -0.192687    1.480186   -0.000000
      4          7           0       -0.192687    2.570187   -0.000000
 ---------------------------------------------------------------------

 SCF Done:  E(ROHF) =  -217.825982568     A.U. after   17 cycles
 E2 =    -0.7689737081D+00 EUMP2 =    -0.21859495627608D+03
 CCSD(T)
 CCSD(T)= -0.21862727469D+03

 The electronic state is 2-A".
 Alpha  occ. eigenvalues --  -15.41068 -15.40277 -15.40024 -15.39194  -1.22365
 Alpha  occ. eigenvalues --   -1.21360  -0.54767  -0.53252  -0.40941  -0.40036
 Alpha  occ. eigenvalues --   -0.39385  -0.37569  -0.36813  -0.35626   0.12509
 Alpha virt. eigenvalues --    0.27529   0.39361   0.40803   0.62332   0.64906
 Alpha virt. eigenvalues --    0.73832   0.75058   0.75589   0.78730   0.79716
 Alpha virt. eigenvalues --    0.86028   0.89510   0.89903   0.93258   0.97490

 Mulliken charges and spin densities:
               1          2
     1  N   -0.268201   0.246356
     2  N   -0.246704   0.268369
     3  N   -0.240191   0.256159
     4  N   -0.244904   0.229116
 Sum of Mulliken charges =  -1.00000   1.00000

 Dipole moment (field-independent basis, Debye):
    X=             -0.1309    Y=              0.2339    Z=              0.0000  Tot=              0.2680
 Quadrupole moment (field-independent basis, Debye-Ang):
   XX=            -24.3440   YY=            -48.9213   ZZ=            -24.3858
   XY=              3.7497   XZ=             -0.0000   YZ=              0.0000

 41\CCSD=-218.5889622\CCSD(T)=-218.6272747\RMSD=4.188e-09\PG=CS [SG(N4)
 Normal termination of Gaussian 16 at Tue Feb 13 16:33:23 2024.
