 Gaussian 16, Revision A.03,
 Gaussian 16:  ES64L-G16RevA.03 25-Dec-2016

 -----------------------------------------------
 #p ROCCSD(T,MaxCyc=200)/cc-pVTZ SCF(MaxCyc=200)
 -----------------------------------------------

 --------
 O2_O2_81
 --------
 Symbolic Z-matrix:
 Charge = -1 Multiplicity = 4

                         Standard orientation:
 ---------------------------------------------------------------------
 Center     Atomic      Atomic             Coordinates (Angstroms)
 Number     Number       Type             X           Y           Z
 ---------------------------------------------------------------------
      1          8           0        0.000000    0.000000    2.200000
      2          8           0        0.000000    0.000000    1.040000
      3          8           0        0.000000    0.000000   -1.040000
      4          8           0        0.000000    0.000000   -2.200000
 ---------------------------------------------------------------------

 SCF Done:  E(ROHF) =  -299.223804227     A.U. after   13 cycles
 E2 =    -0.9639256092D+00 EUMP2 =    -0.30018772983603D+03
 CCSD(T)
 CCSD(T)= -0.30020093887D+03

 Unable to determine electronic state:  an orbital has unidentified symmetry.
 Alpha  occ. eigenvalues --  -20.42170 -20.42168 -20.39930 -20.39930  -1.43419
 Alpha  occ. eigenvalues --   -1.42829  -0.88610  -0.83271  -0.54038  -0.52844
 Alpha  occ. eigenvalues --   -0.52029  -0.51361  -0.50790  -0.42848  -0.21563
 Alpha  occ. eigenvalues --   -0.18825  -0.18766  -0.16063
 Alpha virt. eigenvalues --    0.69173   0.71538   0.89594   0.90778   0.94892
 Alpha virt. eigenvalues --    0.96293   0.98205   1.00374   1.01758   1.05673
 Alpha virt. eigenvalues --    1.11622   1.13148   1.17936   1.18100   1.19387

 Mulliken charges and spin densities:
               1          2
     1  O   -0.342609   0.673918
     2  O   -0.157391   0.826082
     3  O   -0.157391   0.826082
     4  O   -0.342609   0.673918
 Sum of Mulliken charges =  -1.00000   3.00000

 Dipole moment (field-independent basis, Debye):
    X=             -0.0000    Y=              0.0000    Z=             -0.0000  Tot=              0.0000
 Quadrupole moment (field-independent basis, Debye-Ang):
   XX=            -22.5357   YY=            -21.3249   ZZ=            -41.5890
   XY=              0.0000   XZ=              0.0000   YZ=              0.0000

 042\PMP2-0=-300.1877298\MP4SDQ=-300.1666169\CCSD=-300.1629545\CCSD(T)=
 Normal termination of Gaussian 16 at Sat Feb 17 22:25:52 2024.
