 Gaussian 16, Revision A.03,
 Gaussian 16:  ES64L-G16RevA.03 25-Dec-2016

 -----------------------------------------------
 #p ROCCSD(T,MaxCyc=200)/cc-pVTZ SCF(MaxCyc=200)
 -----------------------------------------------

 ---------
 O2_O2_131
 ---------
 Symbolic Z-matrix:
 Charge = -1 Multiplicity = 4

                         Standard orientation:
 ---------------------------------------------------------------------
 Center     Atomic      Atomic             Coordinates (Angstroms)
 Number     Number       Type             X           Y           Z
 ---------------------------------------------------------------------
      1          8           0       -0.870000   -1.650000    0.000000
      2          8           0        0.290000   -1.650000    0.000000
      3          8           0        0.290000    1.070000    0.000000
      4          8           0        0.290000    2.230000    0.000000
 ---------------------------------------------------------------------

 SCF Done:  E(ROHF) =  -299.233069525     A.U. after   36 cycles
 E2 =    -0.9638810988D+00 EUMP2 =    -0.30019695062426D+03
 CCSD(T)
 CCSD(T)= -0.30020842526D+03

 The electronic state is 4-A'.
 Alpha  occ. eigenvalues --  -20.42721 -20.42177 -20.42082 -20.40762  -1.43722
 Alpha  occ. eigenvalues --   -1.43475  -0.86631  -0.85985  -0.54223  -0.53768
 Alpha  occ. eigenvalues --   -0.52408  -0.51762  -0.48759  -0.47304  -0.21125
 Alpha  occ. eigenvalues --   -0.20625  -0.18608  -0.17511
 Alpha virt. eigenvalues --    0.64525   0.68200   0.89337   0.89504   0.92293
 Alpha virt. eigenvalues --    0.94576   0.95855   0.99636   1.01979   1.02850
 Alpha virt. eigenvalues --    1.05307   1.07301   1.07347   1.13424   1.17224

 Mulliken charges and spin densities:
               1          2
     1  O   -0.266349   0.733629
     2  O   -0.230264   0.769905
     3  O   -0.189286   0.816265
     4  O   -0.314101   0.680202
 Sum of Mulliken charges =  -1.00000   3.00000

 Dipole moment (field-independent basis, Debye):
    X=              0.0812    Y=             -0.3609    Z=              0.0000  Tot=              0.3699
 Quadrupole moment (field-independent basis, Debye-Ang):
   XX=            -24.4718   YY=            -38.8741   ZZ=            -21.3242
   XY=             -2.5848   XZ=              0.0000   YZ=              0.0000

 559\CCSD(T)=-300.2084253\RMSD=6.353e-09\PG=CS [SG(O4)]\\@
 Normal termination of Gaussian 16 at Sat Feb 17 23:40:31 2024.
