 Gaussian 16, Revision A.03,
 Gaussian 16:  ES64L-G16RevA.03 25-Dec-2016

 -----------------------------------------------
 #p ROCCSD(T,MaxCyc=200)/cc-pVTZ SCF(MaxCyc=200)
 -----------------------------------------------

 --------
 O2_O2_68
 --------
 Symbolic Z-matrix:
 Charge = -1 Multiplicity = 4

                         Standard orientation:
 ---------------------------------------------------------------------
 Center     Atomic      Atomic             Coordinates (Angstroms)
 Number     Number       Type             X           Y           Z
 ---------------------------------------------------------------------
      1          8           0       -0.870000   -1.230000    0.000000
      2          8           0        0.290000   -1.230000    0.000000
      3          8           0        0.290000    0.650000    0.000000
      4          8           0        0.290000    1.810000    0.000000
 ---------------------------------------------------------------------

 SCF Done:  E(ROHF) =  -299.196977302     A.U. after   24 cycles
 E2 =    -0.9637689546D+00 EUMP2 =    -0.30016074625689D+03
 CCSD(T)
 CCSD(T)= -0.30017548359D+03

 The electronic state is 4-A'.
 Alpha  occ. eigenvalues --  -20.40240 -20.39452 -20.39147 -20.37730  -1.42836
 Alpha  occ. eigenvalues --   -1.40523  -0.87474  -0.82576  -0.54406  -0.53413
 Alpha  occ. eigenvalues --   -0.50461  -0.50172  -0.46442  -0.39755  -0.19853
 Alpha  occ. eigenvalues --   -0.17552  -0.17530  -0.13598
 Alpha virt. eigenvalues --    0.66391   0.72074   0.90723   0.93282   0.95703
 Alpha virt. eigenvalues --    0.96547   0.97727   1.04405   1.04816   1.05841
 Alpha virt. eigenvalues --    1.06716   1.11728   1.14980   1.21440   1.25429

 Mulliken charges and spin densities:
               1          2
     1  O   -0.290324   0.710531
     2  O   -0.214735   0.780368
     3  O   -0.135233   0.841170
     4  O   -0.359708   0.667931
 Sum of Mulliken charges =  -1.00000   3.00000

 Dipole moment (field-independent basis, Debye):
    X=              0.2758    Y=             -0.3635    Z=              0.0000  Tot=              0.4563
 Quadrupole moment (field-independent basis, Debye-Ang):
   XX=            -24.5007   YY=            -34.0182   ZZ=            -21.3103
   XY=             -2.1196   XZ=              0.0000   YZ=              0.0000

 3\CCSD(T)=-300.1754836\RMSD=3.354e-09\PG=CS [SG(O4)]\\@
 Normal termination of Gaussian 16 at Sat Feb 17 22:06:03 2024.
