 Gaussian 16, Revision A.03,
 Gaussian 16:  ES64L-G16RevA.03 25-Dec-2016

 -----------------------------------------------
 #p ROCCSD(T,MaxCyc=200)/cc-pVTZ SCF(MaxCyc=200)
 -----------------------------------------------

 ---------
 O2_O2_194
 ---------
 Symbolic Z-matrix:
 Charge = -1 Multiplicity = 4

                         Standard orientation:
 ---------------------------------------------------------------------
 Center     Atomic      Atomic             Coordinates (Angstroms)
 Number     Number       Type             X           Y           Z
 ---------------------------------------------------------------------
      1          8           0       -0.870000   -2.070000    0.000000
      2          8           0        0.290000   -2.070000    0.000000
      3          8           0        0.290000    1.490000    0.000000
      4          8           0        0.290000    2.650000    0.000000
 ---------------------------------------------------------------------

 SCF Done:  E(ROHF) =  -299.227074050     A.U. after   53 cycles
 E2 =    -0.9643671749D+00 EUMP2 =    -0.30019144122465D+03
 CCSD(T)
 CCSD(T)= -0.30020074977D+03

 The electronic state is 4-A'.
 Alpha  occ. eigenvalues --  -20.43749 -20.43439 -20.43291 -20.42534  -1.44974
 Alpha  occ. eigenvalues --   -1.44871  -0.87790  -0.87515  -0.55397  -0.55249
 Alpha  occ. eigenvalues --   -0.53290  -0.53190  -0.49832  -0.49416  -0.22332
 Alpha  occ. eigenvalues --   -0.22105  -0.19589  -0.19382
 Alpha virt. eigenvalues --    0.63071   0.64649   0.87678   0.90617   0.92035
 Alpha virt. eigenvalues --    0.92384   0.94479   0.98983   1.02107   1.02117
 Alpha virt. eigenvalues --    1.03334   1.04779   1.05640   1.08493   1.12328

 Mulliken charges and spin densities:
               1          2
     1  O   -0.257331   0.742752
     2  O   -0.240341   0.758877
     3  O   -0.208605   0.796616
     4  O   -0.293723   0.701755
 Sum of Mulliken charges =  -1.00000   3.00000

 Dipole moment (field-independent basis, Debye):
    X=              0.0305    Y=             -0.2650    Z=              0.0000  Tot=              0.2667
 Quadrupole moment (field-independent basis, Debye-Ang):
   XX=            -24.3892   YY=            -46.1014   ZZ=            -21.3094
   XY=             -3.1125   XZ=              0.0000   YZ=              0.0000

 9\CCSD(T)=-300.2007498\RMSD=2.052e-10\PG=CS [SG(O4)]\\@
 Normal termination of Gaussian 16 at Sun Feb 18 00:46:45 2024.
