 Gaussian 16, Revision A.03,
 Gaussian 16:  ES64L-G16RevA.03 25-Dec-2016

 -----------------------------------------------
 #p ROCCSD(T,MaxCyc=200)/cc-pVTZ SCF(MaxCyc=200)
 -----------------------------------------------

 ---------
 O2_O2_207
 ---------
 Symbolic Z-matrix:
 Charge = -1 Multiplicity = 4

                         Standard orientation:
 ---------------------------------------------------------------------
 Center     Atomic      Atomic             Coordinates (Angstroms)
 Number     Number       Type             X           Y           Z
 ---------------------------------------------------------------------
      1          8           0        0.000000    0.000000    3.040000
      2          8           0        0.000000    0.000000    1.880000
      3          8           0        0.000000    0.000000   -1.880000
      4          8           0        0.000000    0.000000   -3.040000
 ---------------------------------------------------------------------

 SCF Done:  E(ROHF) =  -299.224927362     A.U. after   13 cycles
 E2 =    -0.9650381520D+00 EUMP2 =    -0.30018996551409D+03
 CCSD(T)
 CCSD(T)= -0.30019839833D+03

 Unable to determine electronic state:  partially filled degenerate orbitals.
 Alpha  occ. eigenvalues --  -20.44431 -20.44431 -20.43497 -20.43497  -1.45688
 Alpha  occ. eigenvalues --   -1.45683  -0.88410  -0.88323  -0.56078  -0.56058
 Alpha  occ. eigenvalues --   -0.54039  -0.54015  -0.50454  -0.50183  -0.22979
 Alpha  occ. eigenvalues --   -0.22897  -0.20285  -0.20243
 Alpha virt. eigenvalues --    0.58428   0.68673   0.89347   0.90346   0.90913
 Alpha virt. eigenvalues --    0.91597   0.92173   0.98584   1.00966   1.02139
 Alpha virt. eigenvalues --    1.03043   1.03144   1.04358   1.10204   1.11600

 Mulliken charges and spin densities:
               1          2
     1  O   -0.284413   0.711827
     2  O   -0.215587   0.788173
     3  O   -0.215587   0.788173
     4  O   -0.284413   0.711827
 Sum of Mulliken charges =  -1.00000   3.00000

 Dipole moment (field-independent basis, Debye):
    X=             -0.0000    Y=              0.0000    Z=              0.0000  Tot=              0.0000
 Quadrupole moment (field-independent basis, Debye-Ang):
   XX=            -21.3056   YY=            -22.4298   ZZ=            -56.9258
   XY=              0.0000   XZ=              0.0000   YZ=              0.0000

 9274\PMP2-0=-300.1899655\MP4SDQ=-300.163726\CCSD=-300.1607933\CCSD(T)=
 Normal termination of Gaussian 16 at Sun Feb 18 00:54:15 2024.
