 Gaussian 16, Revision A.03,
 Gaussian 16:  ES64L-G16RevA.03 25-Dec-2016

 -----------------------------------------------
 #p ROCCSD(T,MaxCyc=200)/cc-pVTZ SCF(MaxCyc=200)
 -----------------------------------------------

 -------
 O2_O2_2
 -------
 Symbolic Z-matrix:
 Charge = -1 Multiplicity = 4

                         Standard orientation:
 ---------------------------------------------------------------------
 Center     Atomic      Atomic             Coordinates (Angstroms)
 Number     Number       Type             X           Y           Z
 ---------------------------------------------------------------------
      1          8           0       -0.870000   -0.790000    0.000000
      2          8           0        0.290000   -0.790000    0.000000
      3          8           0        0.290000    0.210000    0.000000
      4          8           0        0.290000    1.370000    0.000000
 ---------------------------------------------------------------------

 SCF Done:  E(ROHF) =  -298.493069407     A.U. after   18 cycles
 E2 =    -0.9463187033D+00 EUMP2 =    -0.29943938811010D+03
 CCSD(T)
 CCSD(T)= -0.29946140970D+03

 The electronic state is 4-A".
 Alpha  occ. eigenvalues --  -20.51992 -20.46539 -20.29617 -20.23994  -1.82985
 Alpha  occ. eigenvalues --   -1.39629  -1.13524  -0.81688  -0.78567  -0.65661
 Alpha  occ. eigenvalues --   -0.57206  -0.41204  -0.40871  -0.22425  -0.19678
 Alpha  occ. eigenvalues --   -0.11458  -0.08031   0.09247
 Alpha virt. eigenvalues --    0.65575   0.70017   0.84337   0.88357   0.91049
 Alpha virt. eigenvalues --    0.97286   1.00635   1.01441   1.08322   1.08937
 Alpha virt. eigenvalues --    1.13198   1.14286   1.21654   1.27584   1.50974

 Mulliken charges and spin densities:
               1          2
     1  O   -0.773298   0.173801
     2  O    0.120754   0.332686
     3  O    0.091794   1.417134
     4  O   -0.439250   1.076379
 Sum of Mulliken charges =  -1.00000   3.00000

 Dipole moment (field-independent basis, Debye):
    X=              2.3301    Y=             -1.4488    Z=              0.0000  Tot=              2.7439
 Quadrupole moment (field-independent basis, Debye-Ang):
   XX=            -25.3210   YY=            -32.5948   ZZ=            -21.5431
   XY=             -3.9491   XZ=              0.0000   YZ=              0.0000

 CCSD(T)=-299.4614097\RMSD=8.540e-09\PG=CS [SG(O4)]\\@
 Normal termination of Gaussian 16 at Sat Feb 17 20:16:53 2024.
