 Gaussian 16, Revision A.03,
 Gaussian 16:  ES64L-G16RevA.03 25-Dec-2016

 -----------------------------------------------
 #p ROCCSD(T,MaxCyc=200)/cc-pVTZ SCF(MaxCyc=200)
 -----------------------------------------------

 ---------
 O2_O2_171
 ---------
 Symbolic Z-matrix:
 Charge = -1 Multiplicity = 4

                         Standard orientation:
 ---------------------------------------------------------------------
 Center     Atomic      Atomic             Coordinates (Angstroms)
 Number     Number       Type             X           Y           Z
 ---------------------------------------------------------------------
      1          8           0        0.000000    0.000000    2.800000
      2          8           0        0.000000    0.000000    1.640000
      3          8           0        0.000000    0.000000   -1.640000
      4          8           0        0.000000    0.000000   -2.800000
 ---------------------------------------------------------------------

 SCF Done:  E(ROHF) =  -299.226479585     A.U. after   13 cycles
 E2 =    -0.9647889784D+00 EUMP2 =    -0.30019126856386D+03
 CCSD(T)
 CCSD(T)= -0.30020052621D+03

 Unable to determine electronic state:  partially filled degenerate orbitals.
 Alpha  occ. eigenvalues --  -20.44008 -20.44008 -20.42816 -20.42816  -1.45148
 Alpha  occ. eigenvalues --   -1.45131  -0.87923  -0.87636  -0.55548  -0.55484
 Alpha  occ. eigenvalues --   -0.53505  -0.53434  -0.50082  -0.49342  -0.22489
 Alpha  occ. eigenvalues --   -0.22249  -0.19740  -0.19611
 Alpha virt. eigenvalues --    0.59130   0.70450   0.88164   0.90256   0.91500
 Alpha virt. eigenvalues --    0.91821   0.93090   1.00142   1.00986   1.01320
 Alpha virt. eigenvalues --    1.04529   1.05521   1.06852   1.11334   1.12092

 Mulliken charges and spin densities:
               1          2
     1  O   -0.290934   0.703583
     2  O   -0.209066   0.796417
     3  O   -0.209066   0.796417
     4  O   -0.290934   0.703583
 Sum of Mulliken charges =  -1.00000   3.00000

 Dipole moment (field-independent basis, Debye):
    X=             -0.0000    Y=             -0.0000    Z=              0.0000  Tot=              0.0000
 Quadrupole moment (field-independent basis, Debye-Ang):
   XX=            -21.3107   YY=            -22.4488   ZZ=            -51.7468
   XY=              0.0000   XZ=              0.0000   YZ=              0.0000

 4796\PMP2-0=-300.1912686\MP4SDQ=-300.165893\CCSD=-300.1628468\CCSD(T)=
 Normal termination of Gaussian 16 at Sun Feb 18 00:21:32 2024.
