 Gaussian 16, Revision A.03,
 Gaussian 16:  ES64L-G16RevA.03 25-Dec-2016

 -----------------------------------------------
 #p ROCCSD(T,MaxCyc=200)/cc-pVTZ SCF(MaxCyc=200)
 -----------------------------------------------

 ---------
 O2_O2_258
 ---------
 Symbolic Z-matrix:
 Charge = -1 Multiplicity = 4

                         Standard orientation:
 ---------------------------------------------------------------------
 Center     Atomic      Atomic             Coordinates (Angstroms)
 Number     Number       Type             X           Y           Z
 ---------------------------------------------------------------------
      1          8           0        0.000000    0.000000    3.380000
      2          8           0        0.000000    0.000000    2.220000
      3          8           0        0.000000    0.000000   -2.220000
      4          8           0        0.000000    0.000000   -3.380000
 ---------------------------------------------------------------------

 SCF Done:  E(ROHF) =  -299.223840905     A.U. after   13 cycles
 E2 =    -0.9654878216D+00 EUMP2 =    -0.30018932872710D+03
 CCSD(T)
 CCSD(T)= -0.30019694757D+03

 Unable to determine electronic state:  partially filled degenerate orbitals.
 Alpha  occ. eigenvalues --  -20.44951 -20.44951 -20.44256 -20.44256  -1.46320
 Alpha  occ. eigenvalues --   -1.46320  -0.89042  -0.89030  -0.56707  -0.56704
 Alpha  occ. eigenvalues --   -0.54669  -0.54668  -0.51032  -0.50975  -0.23597
 Alpha  occ. eigenvalues --   -0.23583  -0.21002  -0.20855
 Alpha virt. eigenvalues --    0.61023   0.65182   0.89978   0.90072   0.91233
 Alpha virt. eigenvalues --    0.91322   0.92025   0.94868   1.01122   1.01477
 Alpha virt. eigenvalues --    1.02425   1.02651   1.02971   1.05206   1.11002

 Mulliken charges and spin densities:
               1          2
     1  O   -0.277667   0.720271
     2  O   -0.222333   0.779729
     3  O   -0.222333   0.779729
     4  O   -0.277667   0.720271
 Sum of Mulliken charges =  -1.00000   3.00000

 Dipole moment (field-independent basis, Debye):
    X=             -0.0000    Y=              0.0000    Z=              0.0000  Tot=              0.0000
 Quadrupole moment (field-independent basis, Debye-Ang):
   XX=            -21.3010   YY=            -22.4152   ZZ=            -65.2603
   XY=              0.0000   XZ=              0.0000   YZ=              0.0000

 409\PMP2-0=-300.1893287\MP4SDQ=-300.1622047\CCSD=-300.1593811\CCSD(T)=
 Normal termination of Gaussian 16 at Sun Feb 18 01:21:55 2024.
