 Gaussian 16, Revision A.03,
 Gaussian 16:  ES64L-G16RevA.03 25-Dec-2016

 -----------------------------------------------
 #p ROCCSD(T,MaxCyc=200)/cc-pVTZ SCF(MaxCyc=200)
 -----------------------------------------------

 ---------
 O2_O2_133
 ---------
 Symbolic Z-matrix:
 Charge = -1 Multiplicity = 4

                         Standard orientation:
 ---------------------------------------------------------------------
 Center     Atomic      Atomic             Coordinates (Angstroms)
 Number     Number       Type             X           Y           Z
 ---------------------------------------------------------------------
      1          8           0        0.615183   -2.285183    0.000000
      2          8           0       -0.205061   -1.464939    0.000000
      3          8           0       -0.205061    1.295061    0.000000
      4          8           0       -0.205061    2.455061    0.000000
 ---------------------------------------------------------------------

 SCF Done:  E(ROHF) =  -299.229123863     A.U. after   20 cycles
 E2 =    -0.9644518014D+00 EUMP2 =    -0.30019357566442D+03
 CCSD(T)
 CCSD(T)= -0.30020427731D+03

 The electronic state is 4-A".
 Alpha  occ. eigenvalues --  -20.43398 -20.43266 -20.41776 -20.41641  -1.44358
 Alpha  occ. eigenvalues --   -1.44155  -0.87377  -0.86416  -0.54765  -0.54541
 Alpha  occ. eigenvalues --   -0.52730  -0.52427  -0.49664  -0.47891  -0.21633
 Alpha  occ. eigenvalues --   -0.21238  -0.19040  -0.18459
 Alpha virt. eigenvalues --    0.63843   0.69576   0.88969   0.90504   0.90747
 Alpha virt. eigenvalues --    0.94299   0.94623   0.98802   1.00941   1.04046
 Alpha virt. eigenvalues --    1.06375   1.07784   1.10999   1.11220   1.13019

 Mulliken charges and spin densities:
               1          2
     1  O   -0.300492   0.692430
     2  O   -0.200476   0.806673
     3  O   -0.195003   0.809433
     4  O   -0.304029   0.691464
 Sum of Mulliken charges =  -1.00000   3.00000

 Dipole moment (field-independent basis, Debye):
    X=             -0.1843    Y=             -0.0740    Z=             -0.0000  Tot=              0.1986
 Quadrupole moment (field-independent basis, Debye-Ang):
   XX=            -22.6525   YY=            -43.7655   ZZ=            -22.4803
   XY=              3.3737   XZ=              0.0000   YZ=              0.0000

 96356\CCSD=-300.1664203\CCSD(T)=-300.2042773\RMSD=7.938e-09\PG=CS [SG(
 Normal termination of Gaussian 16 at Sat Feb 17 23:43:27 2024.
