 Gaussian 16, Revision A.03,
 Gaussian 16:  ES64L-G16RevA.03 25-Dec-2016

 -----------------------------------------------
 #p ROCCSD(T,MaxCyc=200)/cc-pVTZ SCF(MaxCyc=200)
 -----------------------------------------------

 --------
 O2_O2_79
 --------
 Symbolic Z-matrix:
 Charge = -1 Multiplicity = 4

                         Standard orientation:
 ---------------------------------------------------------------------
 Center     Atomic      Atomic             Coordinates (Angstroms)
 Number     Number       Type             X           Y           Z
 ---------------------------------------------------------------------
      1          8           0        0.615183   -1.925183    0.000000
      2          8           0       -0.205061   -1.104939   -0.000000
      3          8           0       -0.205061    0.935061   -0.000000
      4          8           0       -0.205061    2.095061   -0.000000
 ---------------------------------------------------------------------

 SCF Done:  E(ROHF) =  -299.219416989     A.U. after   24 cycles
 E2 =    -0.9642539299D+00 EUMP2 =    -0.30018367091915D+03
 CCSD(T)
 CCSD(T)= -0.30019739654D+03

 The electronic state is 4-A".
 Alpha  occ. eigenvalues --  -20.42764 -20.41663 -20.40415 -20.38347  -1.43779
 Alpha  occ. eigenvalues --   -1.42070  -0.88748  -0.83002  -0.54439  -0.53551
 Alpha  occ. eigenvalues --   -0.52294  -0.50171  -0.49707  -0.43023  -0.20935
 Alpha  occ. eigenvalues --   -0.18800  -0.18508  -0.15667
 Alpha virt. eigenvalues --    0.68193   0.71450   0.89296   0.90753   0.95789
 Alpha virt. eigenvalues --    0.96794   0.98225   1.02140   1.03123   1.04556
 Alpha virt. eigenvalues --    1.07783   1.12398   1.17338   1.18041   1.20234

 Mulliken charges and spin densities:
               1          2
     1  O   -0.352887   0.631856
     2  O   -0.168116   0.848726
     3  O   -0.146508   0.835121
     4  O   -0.332490   0.684297
 Sum of Mulliken charges =  -1.00000   3.00000

 Dipole moment (field-independent basis, Debye):
    X=             -0.3699    Y=              0.2598    Z=              0.0000  Tot=              0.4520
 Quadrupole moment (field-independent basis, Debye-Ang):
   XX=            -22.8124   YY=            -38.6829   ZZ=            -22.5215
   XY=              3.2982   XZ=             -0.0000   YZ=              0.0000

 12\CCSD=-300.1591742\CCSD(T)=-300.1973965\RMSD=3.986e-09\PG=CS [SG(O4)
 Normal termination of Gaussian 16 at Sat Feb 17 22:23:05 2024.
