 Gaussian 16, Revision A.03,
 Gaussian 16:  ES64L-G16RevA.03 25-Dec-2016

 -----------------------------------------------
 #p ROCCSD(T,MaxCyc=200)/cc-pVTZ SCF(MaxCyc=200)
 -----------------------------------------------

 --------
 O2_O2_85
 --------
 Symbolic Z-matrix:
 Charge = -1 Multiplicity = 4

                         Standard orientation:
 ---------------------------------------------------------------------
 Center     Atomic      Atomic             Coordinates (Angstroms)
 Number     Number       Type             X           Y           Z
 ---------------------------------------------------------------------
      1          8           0        0.615183   -1.965183    0.000000
      2          8           0       -0.205061   -1.144939    0.000000
      3          8           0       -0.205061    0.975061   -0.000000
      4          8           0       -0.205061    2.135061   -0.000000
 ---------------------------------------------------------------------

 SCF Done:  E(ROHF) =  -299.223835466     A.U. after   24 cycles
 E2 =    -0.9641737555D+00 EUMP2 =    -0.30018800922111D+03
 CCSD(T)
 CCSD(T)= -0.30020125937D+03

 The electronic state is 4-A".
 Alpha  occ. eigenvalues --  -20.42806 -20.41950 -20.40530 -20.38946  -1.43754
 Alpha  occ. eigenvalues --   -1.42413  -0.88277  -0.83585  -0.54338  -0.53543
 Alpha  occ. eigenvalues --   -0.52235  -0.50543  -0.49794  -0.43911  -0.20947
 Alpha  occ. eigenvalues --   -0.19011  -0.18724  -0.16126
 Alpha virt. eigenvalues --    0.67755   0.71284   0.89146   0.90548   0.95454
 Alpha virt. eigenvalues --    0.96537   0.97692   1.01883   1.02614   1.04974
 Alpha virt. eigenvalues --    1.07359   1.12420   1.16785   1.16943   1.18590

 Mulliken charges and spin densities:
               1          2
     1  O   -0.342060   0.644264
     2  O   -0.173607   0.841997
     3  O   -0.153528   0.830959
     4  O   -0.330806   0.682780
 Sum of Mulliken charges =  -1.00000   3.00000

 Dipole moment (field-independent basis, Debye):
    X=             -0.3317    Y=              0.1753    Z=             -0.0000  Tot=              0.3752
 Quadrupole moment (field-independent basis, Debye-Ang):
   XX=            -22.7815   YY=            -39.1350   ZZ=            -22.5232
   XY=              3.2840   XZ=             -0.0000   YZ=              0.0000

 82\CCSD=-300.1631228\CCSD(T)=-300.2012594\RMSD=4.584e-09\PG=CS [SG(O4)
 Normal termination of Gaussian 16 at Sat Feb 17 22:32:03 2024.
