 Gaussian 16, Revision A.03,
 Gaussian 16:  ES64L-G16RevA.03 25-Dec-2016

 -----------------------------------------------
 #p ROCCSD(T,MaxCyc=200)/cc-pVTZ SCF(MaxCyc=200)
 -----------------------------------------------

 ---------
 O2_O2_123
 ---------
 Symbolic Z-matrix:
 Charge = -1 Multiplicity = 4

                         Standard orientation:
 ---------------------------------------------------------------------
 Center     Atomic      Atomic             Coordinates (Angstroms)
 Number     Number       Type             X           Y           Z
 ---------------------------------------------------------------------
      1          8           0        0.000000    0.000000    2.480000
      2          8           0        0.000000    0.000000    1.320000
      3          8           0        0.000000    0.000000   -1.320000
      4          8           0        0.000000    0.000000   -2.480000
 ---------------------------------------------------------------------

 SCF Done:  E(ROHF) =  -299.230351437     A.U. after   13 cycles
 E2 =    -0.9644116229D+00 EUMP2 =    -0.30019476305952D+03
 CCSD(T)
 CCSD(T)= -0.30020566672D+03

 Unable to determine electronic state:  partially filled degenerate orbitals.
 Alpha  occ. eigenvalues --  -20.43336 -20.43336 -20.41597 -20.41597  -1.44291
 Alpha  occ. eigenvalues --   -1.44181  -0.87504  -0.86129  -0.54743  -0.54436
 Alpha  occ. eigenvalues --   -0.52697  -0.52372  -0.50038  -0.47289  -0.21851
 Alpha  occ. eigenvalues --   -0.20958  -0.19072  -0.18250
 Alpha virt. eigenvalues --    0.65028   0.71250   0.89292   0.90500   0.91217
 Alpha virt. eigenvalues --    0.93369   0.94673   0.99126   1.00366   1.03220
 Alpha virt. eigenvalues --    1.08884   1.11526   1.11572   1.12834   1.12928

 Mulliken charges and spin densities:
               1          2
     1  O   -0.310981   0.688052
     2  O   -0.189019   0.811948
     3  O   -0.189019   0.811948
     4  O   -0.310981   0.688052
 Sum of Mulliken charges =  -1.00000   3.00000

 Dipole moment (field-independent basis, Debye):
    X=             -0.0000    Y=             -0.0000    Z=              0.0000  Tot=              0.0000
 Quadrupole moment (field-independent basis, Debye-Ang):
   XX=            -22.4963   YY=            -21.3219   ZZ=            -45.7663
   XY=              0.0000   XZ=              0.0000   YZ=              0.0000

 514\PMP2-0=-300.1947631\MP4SDQ=-300.1711441\CCSD=-300.1678588\CCSD(T)=
 Normal termination of Gaussian 16 at Sat Feb 17 23:28:02 2024.
