 Gaussian 16, Revision A.03,
 Gaussian 16:  ES64L-G16RevA.03 25-Dec-2016

 -----------------------------------------------
 #p ROCCSD(T,MaxCyc=200)/cc-pVTZ SCF(MaxCyc=200)
 -----------------------------------------------

 ---------
 O2_O2_174
 ---------
 Symbolic Z-matrix:
 Charge = -1 Multiplicity = 4

                         Standard orientation:
 ---------------------------------------------------------------------
 Center     Atomic      Atomic             Coordinates (Angstroms)
 Number     Number       Type             X           Y           Z
 ---------------------------------------------------------------------
      1          8           0        0.000000    0.000000    2.820000
      2          8           0        0.000000    0.000000    1.660000
      3          8           0        0.000000    0.000000   -1.660000
      4          8           0        0.000000    0.000000   -2.820000
 ---------------------------------------------------------------------

 SCF Done:  E(ROHF) =  -299.226302591     A.U. after   13 cycles
 E2 =    -0.9648084726D+00 EUMP2 =    -0.30019111106395D+03
 CCSD(T)
 CCSD(T)= -0.30020028914D+03

 Unable to determine electronic state:  partially filled degenerate orbitals.
 Alpha  occ. eigenvalues --  -20.44045 -20.44045 -20.42879 -20.42879  -1.45196
 Alpha  occ. eigenvalues --   -1.45181  -0.87963  -0.87703  -0.55595  -0.55536
 Alpha  occ. eigenvalues --   -0.53552  -0.53487  -0.50108  -0.49427  -0.22531
 Alpha  occ. eigenvalues --   -0.22310  -0.19783  -0.19676
 Alpha virt. eigenvalues --    0.58916   0.70349   0.88178   0.90285   0.91530
 Alpha virt. eigenvalues --    0.91735   0.93003   1.00230   1.00820   1.01407
 Alpha virt. eigenvalues --    1.04364   1.05250   1.06579   1.11301   1.12048

 Mulliken charges and spin densities:
               1          2
     1  O   -0.290215   0.704367
     2  O   -0.209785   0.795633
     3  O   -0.209785   0.795633
     4  O   -0.290215   0.704367
 Sum of Mulliken charges =  -1.00000   3.00000

 Dipole moment (field-independent basis, Debye):
    X=             -0.0000    Y=              0.0000    Z=              0.0000  Tot=              0.0000
 Quadrupole moment (field-independent basis, Debye-Ang):
   XX=            -21.3102   YY=            -22.4467   ZZ=            -52.1563
   XY=              0.0000   XZ=              0.0000   YZ=              0.0000

 3026\PMP2-0=-300.1911111\MP4SDQ=-300.165652\CCSD=-300.1626169\CCSD(T)=
 Normal termination of Gaussian 16 at Sun Feb 18 00:24:36 2024.
