 Gaussian 16, Revision A.03,
 Gaussian 16:  ES64L-G16RevA.03 25-Dec-2016

 -----------------------------------------------
 #p ROCCSD(T,MaxCyc=200)/cc-pVTZ SCF(MaxCyc=200)
 -----------------------------------------------

 --------
 O2_O2_56
 --------
 Symbolic Z-matrix:
 Charge = -1 Multiplicity = 4

                         Standard orientation:
 ---------------------------------------------------------------------
 Center     Atomic      Atomic             Coordinates (Angstroms)
 Number     Number       Type             X           Y           Z
 ---------------------------------------------------------------------
      1          8           0       -0.870000   -1.150000    0.000000
      2          8           0        0.290000   -1.150000    0.000000
      3          8           0        0.290000    0.570000    0.000000
      4          8           0        0.290000    1.730000    0.000000
 ---------------------------------------------------------------------

 SCF Done:  E(ROHF) =  -299.167083888     A.U. after   31 cycles
 E2 =    -0.9235995938D+00 EUMP2 =    -0.30009068348196D+03
 CCSD(T)
 CCSD(T)= -0.30013425369D+03

 The electronic state is 4-A'.
 Alpha  occ. eigenvalues --  -20.50209 -20.45905 -20.27634 -20.26697  -1.50804
 Alpha  occ. eigenvalues --   -1.31157  -0.94105  -0.78452  -0.60100  -0.58738
 Alpha  occ. eigenvalues --   -0.54164  -0.42339  -0.39592  -0.34166  -0.26818
 Alpha  occ. eigenvalues --   -0.23522  -0.09121  -0.04718
 Alpha virt. eigenvalues --    0.62302   0.76222   0.86661   0.89584   0.92656
 Alpha virt. eigenvalues --    0.99469   1.00033   1.00701   1.02468   1.09316
 Alpha virt. eigenvalues --    1.14021   1.15148   1.19345   1.24968   1.27361

 Mulliken charges and spin densities:
               1          2
     1  O   -0.146126   0.830745
     2  O    0.029802   1.079198
     3  O   -0.411643   0.523645
     4  O   -0.472033   0.566412
 Sum of Mulliken charges =  -1.00000   3.00000

 Dipole moment (field-independent basis, Debye):
    X=             -0.4911    Y=             -3.9347    Z=              0.0000  Tot=              3.9652
 Quadrupole moment (field-independent basis, Debye-Ang):
   XX=            -24.1105   YY=            -33.1623   ZZ=            -21.2613
   XY=             -2.4601   XZ=              0.0000   YZ=              0.0000

 44\CCSD(T)=-300.1342537\RMSD=8.164e-09\PG=CS [SG(O4)]\\@
 Normal termination of Gaussian 16 at Sat Feb 17 21:46:15 2024.
