 Gaussian 16, Revision A.03,
 Gaussian 16:  ES64L-G16RevA.03 25-Dec-2016

 -----------------------------------------------
 #p ROCCSD(T,MaxCyc=200)/cc-pVTZ SCF(MaxCyc=200)
 -----------------------------------------------

 --------
 O2_O2_49
 --------
 Symbolic Z-matrix:
 Charge = -1 Multiplicity = 4

                         Standard orientation:
 ---------------------------------------------------------------------
 Center     Atomic      Atomic             Coordinates (Angstroms)
 Number     Number       Type             X           Y           Z
 ---------------------------------------------------------------------
      1          8           0        0.615183   -1.725183    0.000000
      2          8           0       -0.205061   -0.904939    0.000000
      3          8           0       -0.205061    0.735061   -0.000000
      4          8           0       -0.205061    1.895061   -0.000000
 ---------------------------------------------------------------------

 SCF Done:  E(ROHF) =  -299.159754472     A.U. after   24 cycles
 E2 =    -0.9347675340D+00 EUMP2 =    -0.30009452200589D+03
 CCSD(T)
 CCSD(T)= -0.30012921524D+03

 The electronic state is 4-A".
 Alpha  occ. eigenvalues --  -20.52065 -20.43625 -20.30062 -20.29482  -1.50737
 Alpha  occ. eigenvalues --   -1.33748  -0.97210  -0.77384  -0.60365  -0.60234
 Alpha  occ. eigenvalues --   -0.54866  -0.44531  -0.41461  -0.35116  -0.25983
 Alpha  occ. eigenvalues --   -0.22143  -0.11384  -0.07061
 Alpha virt. eigenvalues --    0.66520   0.76233   0.89705   0.90364   0.93370
 Alpha virt. eigenvalues --    0.98168   0.99882   0.99966   1.02994   1.05635
 Alpha virt. eigenvalues --    1.12997   1.15710   1.20672   1.23287   1.26260

 Mulliken charges and spin densities:
               1          2
     1  O   -0.322812   0.649450
     2  O    0.161146   1.221947
     3  O   -0.404414   0.519504
     4  O   -0.433919   0.609099
 Sum of Mulliken charges =  -1.00000   3.00000

 Dipole moment (field-independent basis, Debye):
    X=             -0.1386    Y=             -3.1303    Z=              0.0000  Tot=              3.1334
 Quadrupole moment (field-independent basis, Debye-Ang):
   XX=            -22.7051   YY=            -37.1762   ZZ=            -22.3048
   XY=              3.1920   XZ=             -0.0000   YZ=              0.0000

 24\CCSD=-300.0906467\CCSD(T)=-300.1292152\RMSD=1.590e-09\PG=CS [SG(O4)
 Normal termination of Gaussian 16 at Sat Feb 17 21:34:06 2024.
