 Gaussian 16, Revision A.03,
 Gaussian 16:  ES64L-G16RevA.03 25-Dec-2016

 -----------------------------------------------
 #p ROCCSD(T,MaxCyc=200)/cc-pVTZ SCF(MaxCyc=200)
 -----------------------------------------------

 ---------
 O2_O2_225
 ---------
 Symbolic Z-matrix:
 Charge = -1 Multiplicity = 4

                         Standard orientation:
 ---------------------------------------------------------------------
 Center     Atomic      Atomic             Coordinates (Angstroms)
 Number     Number       Type             X           Y           Z
 ---------------------------------------------------------------------
      1          8           0        0.000000    0.000000    3.160000
      2          8           0        0.000000    0.000000    2.000000
      3          8           0        0.000000    0.000000   -2.000000
      4          8           0        0.000000    0.000000   -3.160000
 ---------------------------------------------------------------------

 SCF Done:  E(ROHF) =  -299.223636222     A.U. after   13 cycles
 E2 =    -0.9651442953D+00 EUMP2 =    -0.30018878051683D+03
 CCSD(T)
 CCSD(T)= -0.30019691849D+03

 Unable to determine electronic state:  partially filled degenerate orbitals.
 Alpha  occ. eigenvalues --  -20.44570 -20.44570 -20.43766 -20.43766  -1.45898
 Alpha  occ. eigenvalues --   -1.45896  -0.88620  -0.88576  -0.56289  -0.56279
 Alpha  occ. eigenvalues --   -0.54253  -0.54244  -0.50637  -0.50477  -0.23182
 Alpha  occ. eigenvalues --   -0.23136  -0.20594  -0.20413
 Alpha virt. eigenvalues --    0.59253   0.67442   0.90262   0.90423   0.90577
 Alpha virt. eigenvalues --    0.91518   0.91828   0.97150   1.01148   1.02321
 Alpha virt. eigenvalues --    1.02450   1.02925   1.03498   1.08074   1.11393

 Mulliken charges and spin densities:
               1          2
     1  O   -0.282142   0.715103
     2  O   -0.217858   0.784897
     3  O   -0.217858   0.784897
     4  O   -0.282142   0.715103
 Sum of Mulliken charges =  -1.00000   3.00000

 Dipole moment (field-independent basis, Debye):
    X=             -0.0000    Y=              0.0000    Z=              0.0000  Tot=              0.0000
 Quadrupole moment (field-independent basis, Debye-Ang):
   XX=            -21.3028   YY=            -22.4136   ZZ=            -59.7687
   XY=              0.0000   XZ=              0.0000   YZ=              0.0000

 62\PMP2-0=-300.1887805\MP4SDQ=-300.1621983\CCSD=-300.1593144\CCSD(T)=-
 Normal termination of Gaussian 16 at Sun Feb 18 01:04:34 2024.
