 Gaussian 16, Revision A.03,
 Gaussian 16:  ES64L-G16RevA.03 25-Dec-2016

 -----------------------------------------------
 #p ROCCSD(T,MaxCyc=200)/cc-pVTZ SCF(MaxCyc=200)
 -----------------------------------------------

 ---------
 O2_O2_120
 ---------
 Symbolic Z-matrix:
 Charge = -1 Multiplicity = 4

                         Standard orientation:
 ---------------------------------------------------------------------
 Center     Atomic      Atomic             Coordinates (Angstroms)
 Number     Number       Type             X           Y           Z
 ---------------------------------------------------------------------
      1          8           0        0.000000    0.000000    2.460000
      2          8           0        0.000000    0.000000    1.300000
      3          8           0        0.000000    0.000000   -1.300000
      4          8           0        0.000000    0.000000   -2.460000
 ---------------------------------------------------------------------

 SCF Done:  E(ROHF) =  -299.230565354     A.U. after   13 cycles
 E2 =    -0.9643763508D+00 EUMP2 =    -0.30019494170503D+03
 CCSD(T)
 CCSD(T)= -0.30020597751D+03

 Unable to determine electronic state:  an orbital has unidentified symmetry.
 Alpha  occ. eigenvalues --  -20.43283 -20.43282 -20.41502 -20.41502  -1.44231
 Alpha  occ. eigenvalues --   -1.44108  -0.87507  -0.85992  -0.54690  -0.54352
 Alpha  occ. eigenvalues --   -0.52644  -0.52287  -0.50074  -0.47092  -0.21816
 Alpha  occ. eigenvalues --   -0.20849  -0.19036  -0.18135
 Alpha virt. eigenvalues --    0.65422   0.71280   0.89233   0.90439   0.91653
 Alpha virt. eigenvalues --    0.93473   0.94781   0.99128   1.00375   1.03369
 Alpha virt. eigenvalues --    1.09309   1.11524   1.12034   1.12883   1.13389

 Mulliken charges and spin densities:
               1          2
     1  O   -0.312894   0.686913
     2  O   -0.187106   0.813087
     3  O   -0.187106   0.813087
     4  O   -0.312894   0.686913
 Sum of Mulliken charges =  -1.00000   3.00000

 Dipole moment (field-independent basis, Debye):
    X=             -0.0000    Y=              0.0000    Z=             -0.0000  Tot=              0.0000
 Quadrupole moment (field-independent basis, Debye-Ang):
   XX=            -21.3227   YY=            -22.5000   ZZ=            -45.4309
   XY=              0.0000   XZ=              0.0000   YZ=              0.0000

 654\PMP2-0=-300.1949417\MP4SDQ=-300.1714665\CCSD=-300.1681611\CCSD(T)=
 Normal termination of Gaussian 16 at Sat Feb 17 23:23:22 2024.
