 Gaussian 16, Revision A.03,
 Gaussian 16:  ES64L-G16RevA.03 25-Dec-2016

 -----------------------------------------------
 #p ROCCSD(T,MaxCyc=200)/cc-pVTZ SCF(MaxCyc=200)
 -----------------------------------------------

 --------
 O2_O2_32
 --------
 Symbolic Z-matrix:
 Charge = -1 Multiplicity = 4

                         Standard orientation:
 ---------------------------------------------------------------------
 Center     Atomic      Atomic             Coordinates (Angstroms)
 Number     Number       Type             X           Y           Z
 ---------------------------------------------------------------------
      1          8           0       -0.870000   -0.990000    0.000000
      2          8           0        0.290000   -0.990000    0.000000
      3          8           0        0.290000    0.410000    0.000000
      4          8           0        0.290000    1.570000    0.000000
 ---------------------------------------------------------------------

 SCF Done:  E(ROHF) =  -298.996720085     A.U. after   21 cycles
 E2 =    -0.9336220924D+00 EUMP2 =    -0.29993034217736D+03
 CCSD(T)
 CCSD(T)= -0.29996741673D+03

 The electronic state is 4-A".
 Alpha  occ. eigenvalues --  -20.48971 -20.35929 -20.32490 -20.29375  -1.52197
 Alpha  occ. eigenvalues --   -1.34462  -0.98298  -0.81097  -0.59299  -0.57832
 Alpha  occ. eigenvalues --   -0.52251  -0.45439  -0.41943  -0.28571  -0.21933
 Alpha  occ. eigenvalues --   -0.16215  -0.09452  -0.08527
 Alpha virt. eigenvalues --    0.64240   0.73876   0.84905   0.92278   0.93899
 Alpha virt. eigenvalues --    0.98312   1.02066   1.03031   1.03833   1.11020
 Alpha virt. eigenvalues --    1.13133   1.16626   1.16911   1.26268   1.30351

 Mulliken charges and spin densities:
               1          2
     1  O   -0.378733   0.543815
     2  O    0.106133   1.126976
     3  O   -0.229653   0.757366
     4  O   -0.497747   0.571843
 Sum of Mulliken charges =  -1.00000   3.00000

 Dipole moment (field-independent basis, Debye):
    X=              0.6769    Y=             -2.3750    Z=              0.0000  Tot=              2.4695
 Quadrupole moment (field-independent basis, Debye-Ang):
   XX=            -24.0004   YY=            -32.5347   ZZ=            -21.9821
   XY=             -3.1304   XZ=              0.0000   YZ=              0.0000

 1\CCSD(T)=-299.9674167\RMSD=6.974e-09\PG=CS [SG(O4)]\\@
 Normal termination of Gaussian 16 at Sat Feb 17 21:06:21 2024.
