 Gaussian 16, Revision A.03,
 Gaussian 16:  ES64L-G16RevA.03 25-Dec-2016

 -----------------------------------------------
 #p ROCCSD(T,MaxCyc=200)/cc-pVTZ SCF(MaxCyc=200)
 -----------------------------------------------

 --------
 O2_O2_54
 --------
 Symbolic Z-matrix:
 Charge = -1 Multiplicity = 4

                         Standard orientation:
 ---------------------------------------------------------------------
 Center     Atomic      Atomic             Coordinates (Angstroms)
 Number     Number       Type             X           Y           Z
 ---------------------------------------------------------------------
      1          8           0        0.000000    0.000000    2.020000
      2          8           0        0.000000    0.000000    0.860000
      3          8           0        0.000000    0.000000   -0.860000
      4          8           0        0.000000    0.000000   -2.020000
 ---------------------------------------------------------------------

 SCF Done:  E(ROHF) =  -299.171430564     A.U. after   13 cycles
 E2 =    -0.9649612839D+00 EUMP2 =    -0.30013639184835D+03
 CCSD(T)
 CCSD(T)= -0.30015181882D+03

 Unable to determine electronic state:  an orbital has unidentified symmetry.
 Alpha  occ. eigenvalues --  -20.40304 -20.40300 -20.38236 -20.38236  -1.43033
 Alpha  occ. eigenvalues --   -1.41260  -0.92398  -0.79664  -0.53919  -0.53394
 Alpha  occ. eigenvalues --   -0.52043  -0.50994  -0.48963  -0.35794  -0.21957
 Alpha  occ. eigenvalues --   -0.19110  -0.16178  -0.13494
 Alpha virt. eigenvalues --    0.70724   0.71723   0.91195   0.92348   0.95987
 Alpha virt. eigenvalues --    0.97563   0.99597   1.03043   1.04543   1.05554
 Alpha virt. eigenvalues --    1.12786   1.14412   1.21864   1.22974   1.26410

 Mulliken charges and spin densities:
               1          2
     1  O   -0.356723   0.680645
     2  O   -0.143277   0.819355
     3  O   -0.143277   0.819355
     4  O   -0.356723   0.680645
 Sum of Mulliken charges =  -1.00000   3.00000

 Dipole moment (field-independent basis, Debye):
    X=             -0.0000    Y=              0.0000    Z=              0.0000  Tot=              0.0000
 Quadrupole moment (field-independent basis, Debye-Ang):
   XX=            -22.4821   YY=            -21.2745   ZZ=            -39.6173
   XY=              0.0000   XZ=              0.0000   YZ=              0.0000

 306\PMP2-0=-300.1363918\MP4SDQ=-300.1173913\CCSD=-300.1133773\CCSD(T)=
 Normal termination of Gaussian 16 at Sat Feb 17 21:42:46 2024.
