 Gaussian 16, Revision A.03,
 Gaussian 16:  ES64L-G16RevA.03 25-Dec-2016

 -----------------------------------------------
 #p ROCCSD(T,MaxCyc=200)/cc-pVTZ SCF(MaxCyc=200)
 -----------------------------------------------

 --------
 O2_O2_92
 --------
 Symbolic Z-matrix:
 Charge = -1 Multiplicity = 4

                         Standard orientation:
 ---------------------------------------------------------------------
 Center     Atomic      Atomic             Coordinates (Angstroms)
 Number     Number       Type             X           Y           Z
 ---------------------------------------------------------------------
      1          8           0       -0.870000   -1.390000    0.000000
      2          8           0        0.290000   -1.390000    0.000000
      3          8           0        0.290000    0.810000    0.000000
      4          8           0        0.290000    1.970000    0.000000
 ---------------------------------------------------------------------

 SCF Done:  E(ROHF) =  -299.228643131     A.U. after   23 cycles
 E2 =    -0.9633662759D+00 EUMP2 =    -0.30019200940731D+03
 CCSD(T)
 CCSD(T)= -0.30020537617D+03

 The electronic state is 4-A'.
 Alpha  occ. eigenvalues --  -20.41475 -20.40914 -20.40727 -20.39046  -1.42912
 Alpha  occ. eigenvalues --   -1.41979  -0.86328  -0.84322  -0.53511  -0.52976
 Alpha  occ. eigenvalues --   -0.52106  -0.50596  -0.47698  -0.43972  -0.20245
 Alpha  occ. eigenvalues --   -0.19062  -0.18073  -0.15489
 Alpha virt. eigenvalues --    0.65665   0.71061   0.89358   0.93563   0.95808
 Alpha virt. eigenvalues --    0.96405   0.96899   1.00483   1.02218   1.03902
 Alpha virt. eigenvalues --    1.06076   1.10365   1.14118   1.14557   1.22917

 Mulliken charges and spin densities:
               1          2
     1  O   -0.276134   0.723374
     2  O   -0.220956   0.781408
     3  O   -0.159608   0.829027
     4  O   -0.343302   0.666191
 Sum of Mulliken charges =  -1.00000   3.00000

 Dipole moment (field-independent basis, Debye):
    X=              0.1587    Y=             -0.4156    Z=              0.0000  Tot=              0.4448
 Quadrupole moment (field-independent basis, Debye-Ang):
   XX=            -24.5149   YY=            -35.5193   ZZ=            -21.3337
   XY=             -2.2727   XZ=              0.0000   YZ=              0.0000

 1\CCSD(T)=-300.2053762\RMSD=6.675e-09\PG=CS [SG(O4)]\\@
 Normal termination of Gaussian 16 at Sat Feb 17 22:42:45 2024.
