 Gaussian 16, Revision A.03,
 Gaussian 16:  ES64L-G16RevA.03 25-Dec-2016

 -----------------------------------------------
 #p ROCCSD(T,MaxCyc=200)/cc-pVTZ SCF(MaxCyc=200)
 -----------------------------------------------

 ---------
 O2_O2_216
 ---------
 Symbolic Z-matrix:
 Charge = -1 Multiplicity = 4

                         Standard orientation:
 ---------------------------------------------------------------------
 Center     Atomic      Atomic             Coordinates (Angstroms)
 Number     Number       Type             X           Y           Z
 ---------------------------------------------------------------------
      1          8           0        0.000000    0.000000    3.100000
      2          8           0        0.000000    0.000000    1.940000
      3          8           0        0.000000    0.000000   -1.940000
      4          8           0        0.000000    0.000000   -3.100000
 ---------------------------------------------------------------------

 SCF Done:  E(ROHF) =  -299.224696725     A.U. after   13 cycles
 E2 =    -0.9651094960D+00 EUMP2 =    -0.30018980622119D+03
 CCSD(T)
 CCSD(T)= -0.30019807040D+03

 Unable to determine electronic state:  partially filled degenerate orbitals.
 Alpha  occ. eigenvalues --  -20.44532 -20.44532 -20.43646 -20.43646  -1.45811
 Alpha  occ. eigenvalues --   -1.45808  -0.88530  -0.88466  -0.56200  -0.56185
 Alpha  occ. eigenvalues --   -0.54161  -0.54143  -0.50558  -0.50349  -0.23097
 Alpha  occ. eigenvalues --   -0.23035  -0.20427  -0.20362
 Alpha virt. eigenvalues --    0.58784   0.68069   0.89870   0.90305   0.90730
 Alpha virt. eigenvalues --    0.91556   0.91989   0.97867   1.01071   1.02244
 Alpha virt. eigenvalues --    1.02645   1.02988   1.03956   1.09198   1.11486

 Mulliken charges and spin densities:
               1          2
     1  O   -0.283142   0.713550
     2  O   -0.216858   0.786450
     3  O   -0.216858   0.786450
     4  O   -0.283142   0.713550
 Sum of Mulliken charges =  -1.00000   3.00000

 Dipole moment (field-independent basis, Debye):
    X=             -0.0000    Y=              0.0000    Z=              0.0000  Tot=              0.0000
 Quadrupole moment (field-independent basis, Debye-Ang):
   XX=            -21.3046   YY=            -22.4268   ZZ=            -58.3108
   XY=              0.0000   XZ=              0.0000   YZ=              0.0000

 Normal termination of Gaussian 16 at Sun Feb 18 00:59:05 2024.
