 Gaussian 16, Revision A.03,
 Gaussian 16:  ES64L-G16RevA.03 25-Dec-2016

 -----------------------------------------------
 #p ROCCSD(T,MaxCyc=200)/cc-pVTZ SCF(MaxCyc=200)
 -----------------------------------------------

 --------
 O2_O2_80
 --------
 Symbolic Z-matrix:
 Charge = -1 Multiplicity = 4

                         Standard orientation:
 ---------------------------------------------------------------------
 Center     Atomic      Atomic             Coordinates (Angstroms)
 Number     Number       Type             X           Y           Z
 ---------------------------------------------------------------------
      1          8           0       -0.870000   -1.310000    0.000000
      2          8           0        0.290000   -1.310000    0.000000
      3          8           0        0.290000    0.730000    0.000000
      4          8           0        0.290000    1.890000    0.000000
 ---------------------------------------------------------------------

 SCF Done:  E(ROHF) =  -299.218410953     A.U. after   22 cycles
 E2 =    -0.9634710417D+00 EUMP2 =    -0.30018188199448D+03
 CCSD(T)
 CCSD(T)= -0.30019585349D+03

 The electronic state is 4-A'.
 Alpha  occ. eigenvalues --  -20.40849 -20.40348 -20.40077 -20.38367  -1.42782
 Alpha  occ. eigenvalues --   -1.41310  -0.86647  -0.83556  -0.53586  -0.53393
 Alpha  occ. eigenvalues --   -0.51357  -0.50262  -0.47193  -0.42164  -0.20015
 Alpha  occ. eigenvalues --   -0.18365  -0.17868  -0.14631
 Alpha virt. eigenvalues --    0.66005   0.71635   0.89921   0.94670   0.94912
 Alpha virt. eigenvalues --    0.96554   0.97048   1.02817   1.03720   1.04315
 Alpha virt. eigenvalues --    1.06292   1.11101   1.14675   1.17873   1.24246

 Mulliken charges and spin densities:
               1          2
     1  O   -0.281519   0.718850
     2  O   -0.216811   0.784076
     3  O   -0.148715   0.832418
     4  O   -0.352955   0.664655
 Sum of Mulliken charges =  -1.00000   3.00000

 Dipole moment (field-independent basis, Debye):
    X=              0.2018    Y=             -0.4229    Z=              0.0000  Tot=              0.4686
 Quadrupole moment (field-independent basis, Debye-Ang):
   XX=            -24.5121   YY=            -34.7050   ZZ=            -21.3281
   XY=             -2.1905   XZ=              0.0000   YZ=              0.0000

 Normal termination of Gaussian 16 at Sat Feb 17 22:24:38 2024.
