 Gaussian 16, Revision A.03,
 Gaussian 16:  ES64L-G16RevA.03 25-Dec-2016

 -----------------------------------------------
 #p ROCCSD(T,MaxCyc=200)/cc-pVTZ SCF(MaxCyc=200)
 -----------------------------------------------

 ---------
 O2_O2_178
 ---------
 Symbolic Z-matrix:
 Charge = -1 Multiplicity = 4

                         Standard orientation:
 ---------------------------------------------------------------------
 Center     Atomic      Atomic             Coordinates (Angstroms)
 Number     Number       Type             X           Y           Z
 ---------------------------------------------------------------------
      1          8           0        0.615183   -2.585183    0.000000
      2          8           0       -0.205061   -1.764939    0.000000
      3          8           0       -0.205061    1.595061   -0.000000
      4          8           0       -0.205061    2.755061   -0.000000
 ---------------------------------------------------------------------

 SCF Done:  E(ROHF) =  -299.226159930     A.U. after   22 cycles
 E2 =    -0.9647590192D+00 EUMP2 =    -0.30019091894910D+03
 CCSD(T)
 CCSD(T)= -0.30020014873D+03

 The electronic state is 4-A".
 Alpha  occ. eigenvalues --  -20.43948 -20.43948 -20.42900 -20.42794  -1.45116
 Alpha  occ. eigenvalues --   -1.45098  -0.87902  -0.87670  -0.55504  -0.55457
 Alpha  occ. eigenvalues --   -0.53484  -0.53415  -0.50003  -0.49474  -0.22394
 Alpha  occ. eigenvalues --   -0.22288  -0.19724  -0.19631
 Alpha virt. eigenvalues --    0.60251   0.68120   0.87606   0.90703   0.91633
 Alpha virt. eigenvalues --    0.92663   0.93078   0.97758   1.01714   1.02151
 Alpha virt. eigenvalues --    1.03413   1.05187   1.06231   1.10894   1.12140

 Mulliken charges and spin densities:
               1          2
     1  O   -0.285525   0.710242
     2  O   -0.213303   0.790164
     3  O   -0.210194   0.795552
     4  O   -0.290977   0.704043
 Sum of Mulliken charges =  -1.00000   3.00000

 Dipole moment (field-independent basis, Debye):
    X=             -0.1298    Y=             -0.1060    Z=             -0.0000  Tot=              0.1676
 Quadrupole moment (field-independent basis, Debye-Ang):
   XX=            -22.6066   YY=            -49.2989   ZZ=            -22.4430
   XY=              3.5727   XZ=             -0.0000   YZ=              0.0000

 5474\CCSD=-300.1624574\CCSD(T)=-300.2001487\RMSD=6.460e-09\PG=CS [SG(O
 Normal termination of Gaussian 16 at Sun Feb 18 00:29:18 2024.
