 Gaussian 16, Revision A.03,
 Gaussian 16:  ES64L-G16RevA.03 25-Dec-2016

 -----------------------------------------------
 #p ROCCSD(T,MaxCyc=200)/cc-pVTZ SCF(MaxCyc=200)
 -----------------------------------------------

 ---------
 O2_O2_130
 ---------
 Symbolic Z-matrix:
 Charge = -1 Multiplicity = 4

                         Standard orientation:
 ---------------------------------------------------------------------
 Center     Atomic      Atomic             Coordinates (Angstroms)
 Number     Number       Type             X           Y           Z
 ---------------------------------------------------------------------
      1          8           0        0.615183   -2.265183   -0.000000
      2          8           0       -0.205061   -1.444939    0.000000
      3          8           0       -0.205061    1.275061    0.000000
      4          8           0       -0.205061    2.435061    0.000000
 ---------------------------------------------------------------------

 SCF Done:  E(ROHF) =  -299.229329582     A.U. after   21 cycles
 E2 =    -0.9644250834D+00 EUMP2 =    -0.30019375466572D+03
 CCSD(T)
 CCSD(T)= -0.30020457765D+03

 The electronic state is 4-A".
 Alpha  occ. eigenvalues --  -20.43361 -20.43210 -20.41700 -20.41531  -1.44307
 Alpha  occ. eigenvalues --   -1.44076  -0.87362  -0.86301  -0.54717  -0.54470
 Alpha  occ. eigenvalues --   -0.52681  -0.52343  -0.49659  -0.47740  -0.21581
 Alpha  occ. eigenvalues --   -0.21147  -0.19000  -0.18357
 Alpha virt. eigenvalues --    0.64137   0.69692   0.89055   0.90670   0.90706
 Alpha virt. eigenvalues --    0.94431   0.94737   0.98915   1.00944   1.04223
 Alpha virt. eigenvalues --    1.06555   1.08015   1.11311   1.11383   1.13119

 Mulliken charges and spin densities:
               1          2
     1  O   -0.301948   0.690731
     2  O   -0.199338   0.808159
     3  O   -0.193355   0.810543
     4  O   -0.305359   0.690567
 Sum of Mulliken charges =  -1.00000   3.00000

 Dipole moment (field-independent basis, Debye):
    X=             -0.1895    Y=             -0.0683    Z=             -0.0000  Tot=              0.2014
 Quadrupole moment (field-independent basis, Debye-Ang):
   XX=            -22.6571   YY=            -43.4329   ZZ=            -22.4836
   XY=              3.3625   XZ=             -0.0000   YZ=              0.0000

 411\CCSD=-300.1667102\CCSD(T)=-300.2045776\RMSD=7.154e-09\PG=CS [SG(O4
 Normal termination of Gaussian 16 at Sat Feb 17 23:38:52 2024.
