 Gaussian 16, Revision A.03,
 Gaussian 16:  ES64L-G16RevA.03 25-Dec-2016

 -----------------------------------------------
 #p ROCCSD(T,MaxCyc=200)/cc-pVTZ SCF(MaxCyc=200)
 -----------------------------------------------

 -------
 O2_O2_1
 -------
 Symbolic Z-matrix:
 Charge = -1 Multiplicity = 4

                         Standard orientation:
 ---------------------------------------------------------------------
 Center     Atomic      Atomic             Coordinates (Angstroms)
 Number     Number       Type             X           Y           Z
 ---------------------------------------------------------------------
      1          8           0        0.615183   -1.405183    0.000000
      2          8           0       -0.205061   -0.584939    0.000000
      3          8           0       -0.205061    0.415061   -0.000000
      4          8           0       -0.205061    1.575061   -0.000000
 ---------------------------------------------------------------------

 SCF Done:  E(ROHF) =  -298.587701541     A.U. after   18 cycles
 E2 =    -0.9327842223D+00 EUMP2 =    -0.29952048576344D+03
 CCSD(T)
 CCSD(T)= -0.29955114486D+03

 The electronic state is 4-A".
 Alpha  occ. eigenvalues --  -20.48743 -20.46504 -20.32860 -20.26130  -1.74556
 Alpha  occ. eigenvalues --   -1.40704  -1.21476  -0.75848  -0.74962  -0.68774
 Alpha  occ. eigenvalues --   -0.57669  -0.43529  -0.42439  -0.22944  -0.22525
 Alpha  occ. eigenvalues --   -0.13133  -0.04553   0.08484
 Alpha virt. eigenvalues --    0.71360   0.76478   0.87550   0.87877   0.88187
 Alpha virt. eigenvalues --    0.95683   1.01430   1.03240   1.06889   1.09811
 Alpha virt. eigenvalues --    1.11371   1.16723   1.19700   1.24080   1.49531

 Mulliken charges and spin densities:
               1          2
     1  O   -0.735804   0.166298
     2  O    0.159926   0.550085
     3  O   -0.105229   1.113510
     4  O   -0.318893   1.170107
 Sum of Mulliken charges =  -1.00000   3.00000

 Dipole moment (field-independent basis, Debye):
    X=             -1.4741    Y=              0.4086    Z=             -0.0000  Tot=              1.5297
 Quadrupole moment (field-independent basis, Debye-Ang):
   XX=            -23.5161   YY=            -38.4675   ZZ=            -21.5209
   XY=              4.1542   XZ=             -0.0000   YZ=              0.0000

 145\CCSD=-299.5146294\CCSD(T)=-299.5511449\RMSD=6.516e-09\PG=CS [SG(O4
 Normal termination of Gaussian 16 at Sat Feb 17 20:15:14 2024.
