 Gaussian 16, Revision A.03,
 Gaussian 16:  ES64L-G16RevA.03 25-Dec-2016

 -----------------------------------------------
 #p ROCCSD(T,MaxCyc=200)/cc-pVTZ SCF(MaxCyc=200)
 -----------------------------------------------

 --------
 O2_O2_69
 --------
 Symbolic Z-matrix:
 Charge = -1 Multiplicity = 4

                         Standard orientation:
 ---------------------------------------------------------------------
 Center     Atomic      Atomic             Coordinates (Angstroms)
 Number     Number       Type             X           Y           Z
 ---------------------------------------------------------------------
      1          8           0        0.000000    0.000000    2.120000
      2          8           0        0.000000    0.000000    0.960000
      3          8           0        0.000000    0.000000   -0.960000
      4          8           0        0.000000    0.000000   -2.120000
 ---------------------------------------------------------------------

 SCF Done:  E(ROHF) =  -299.210526065     A.U. after   13 cycles
 E2 =    -0.9640357577D+00 EUMP2 =    -0.30017456182282D+03
 CCSD(T)
 CCSD(T)= -0.30018866113D+03

 Unable to determine electronic state:  an orbital has unidentified symmetry.
 Alpha  occ. eigenvalues --  -20.41513 -20.41510 -20.39261 -20.39261  -1.43191
 Alpha  occ. eigenvalues --   -1.42234  -0.89767  -0.81899  -0.53908  -0.52155
 Alpha  occ. eigenvalues --   -0.52136  -0.51938  -0.50094  -0.40407  -0.21637
 Alpha  occ. eigenvalues --   -0.18830  -0.17838  -0.15089
 Alpha virt. eigenvalues --    0.69967   0.71580   0.90227   0.91401   0.95366
 Alpha virt. eigenvalues --    0.96826   0.99412   1.01336   1.02776   1.06113
 Alpha virt. eigenvalues --    1.12188   1.13059   1.19838   1.21066   1.21527

 Mulliken charges and spin densities:
               1          2
     1  O   -0.350022   0.673419
     2  O   -0.149978   0.826581
     3  O   -0.149978   0.826581
     4  O   -0.350022   0.673419
 Sum of Mulliken charges =  -1.00000   3.00000

 Dipole moment (field-independent basis, Debye):
    X=             -0.0000    Y=             -0.0000    Z=             -0.0000  Tot=              0.0000
 Quadrupole moment (field-independent basis, Debye-Ang):
   XX=            -22.5273   YY=            -21.3128   ZZ=            -40.6337
   XY=              0.0000   XZ=              0.0000   YZ=              0.0000

 261\PMP2-0=-300.1745618\MP4SDQ=-300.1543633\CCSD=-300.1505505\CCSD(T)=
 Normal termination of Gaussian 16 at Sat Feb 17 22:07:21 2024.
