 Gaussian 16, Revision A.03,
 Gaussian 16:  ES64L-G16RevA.03 25-Dec-2016

 -----------------------------------------------
 #p ROCCSD(T,MaxCyc=200)/cc-pVTZ SCF(MaxCyc=200)
 -----------------------------------------------

 ---------
 O2_O2_114
 ---------
 Symbolic Z-matrix:
 Charge = -1 Multiplicity = 4

                         Standard orientation:
 ---------------------------------------------------------------------
 Center     Atomic      Atomic             Coordinates (Angstroms)
 Number     Number       Type             X           Y           Z
 ---------------------------------------------------------------------
      1          8           0        0.000000    0.000000    2.420000
      2          8           0        0.000000    0.000000    1.260000
      3          8           0        0.000000    0.000000   -1.260000
      4          8           0        0.000000    0.000000   -2.420000
 ---------------------------------------------------------------------

 SCF Done:  E(ROHF) =  -299.230886193     A.U. after   13 cycles
 E2 =    -0.9643003257D+00 EUMP2 =    -0.30019518651881D+03
 CCSD(T)
 CCSD(T)= -0.30020649951D+03

 Unable to determine electronic state:  an orbital has unidentified symmetry.
 Alpha  occ. eigenvalues --  -20.43169 -20.43168 -20.41304 -20.41304  -1.44110
 Alpha  occ. eigenvalues --   -1.43953  -0.87535  -0.85695  -0.54584  -0.54173
 Alpha  occ. eigenvalues --   -0.52539  -0.52108  -0.50166  -0.46661  -0.21751
 Alpha  occ. eigenvalues --   -0.20616  -0.18967  -0.17892
 Alpha virt. eigenvalues --    0.66167   0.71337   0.89139   0.90341   0.92604
 Alpha virt. eigenvalues --    0.93682   0.94999   0.99166   1.00430   1.03683
 Alpha virt. eigenvalues --    1.10239   1.11518   1.12971   1.12985   1.14324

 Mulliken charges and spin densities:
               1          2
     1  O   -0.317008   0.684614
     2  O   -0.182992   0.815386
     3  O   -0.182992   0.815386
     4  O   -0.317008   0.684614
 Sum of Mulliken charges =  -1.00000   3.00000

 Dipole moment (field-independent basis, Debye):
    X=             -0.0000    Y=             -0.0000    Z=              0.0000  Tot=              0.0000
 Quadrupole moment (field-independent basis, Debye-Ang):
   XX=            -21.3244   YY=            -22.5075   ZZ=            -44.7754
   XY=              0.0000   XZ=              0.0000   YZ=              0.0000

 8862\PMP2-0=-300.1951865\MP4SDQ=-300.172014\CCSD=-300.1686655\CCSD(T)=
 Normal termination of Gaussian 16 at Sat Feb 17 23:14:02 2024.
