 Gaussian 16, Revision A.03,
 Gaussian 16:  ES64L-G16RevA.03 25-Dec-2016

 -----------------------------------------------
 #p ROCCSD(T,MaxCyc=200)/cc-pVTZ SCF(MaxCyc=200)
 -----------------------------------------------

 ---------
 O2_O2_169
 ---------
 Symbolic Z-matrix:
 Charge = -1 Multiplicity = 4

                         Standard orientation:
 ---------------------------------------------------------------------
 Center     Atomic      Atomic             Coordinates (Angstroms)
 Number     Number       Type             X           Y           Z
 ---------------------------------------------------------------------
      1          8           0        0.615183   -2.525183    0.000000
      2          8           0       -0.205061   -1.704939    0.000000
      3          8           0       -0.205061    1.535061   -0.000000
      4          8           0       -0.205061    2.695061   -0.000000
 ---------------------------------------------------------------------

 SCF Done:  E(ROHF) =  -299.226637846     A.U. after   20 cycles
 E2 =    -0.9647059730D+00 EUMP2 =    -0.30019134381928D+03
 CCSD(T)
 CCSD(T)= -0.30020082441D+03

 The electronic state is 4-A".
 Alpha  occ. eigenvalues --  -20.43837 -20.43829 -20.42695 -20.42607  -1.44965
 Alpha  occ. eigenvalues --   -1.44941  -0.87774  -0.87472  -0.55359  -0.55295
 Alpha  occ. eigenvalues --   -0.53335  -0.53250  -0.49906  -0.49233  -0.22247
 Alpha  occ. eigenvalues --   -0.22112  -0.19582  -0.19442
 Alpha virt. eigenvalues --    0.60685   0.68406   0.87537   0.90626   0.91536
 Alpha virt. eigenvalues --    0.92936   0.93357   0.97956   1.01502   1.02407
 Alpha virt. eigenvalues --    1.03888   1.05630   1.06994   1.10945   1.12281

 Mulliken charges and spin densities:
               1          2
     1  O   -0.287736   0.707534
     2  O   -0.211200   0.792786
     3  O   -0.208197   0.797935
     4  O   -0.292867   0.701745
 Sum of Mulliken charges =  -1.00000   3.00000

 Dipole moment (field-independent basis, Debye):
    X=             -0.1382    Y=             -0.1057    Z=             -0.0000  Tot=              0.1740
 Quadrupole moment (field-independent basis, Debye-Ang):
   XX=            -22.6132   YY=            -48.1141   ZZ=            -22.4487
   XY=              3.5293   XZ=             -0.0000   YZ=              0.0000

 493\CCSD=-300.1630982\CCSD(T)=-300.2008244\RMSD=8.731e-09\PG=CS [SG(O4
 Normal termination of Gaussian 16 at Sun Feb 18 00:20:03 2024.
