 Gaussian 16, Revision A.03,
 Gaussian 16:  ES64L-G16RevA.03 25-Dec-2016

 -----------------------------------------------
 #p ROCCSD(T,MaxCyc=200)/cc-pVTZ SCF(MaxCyc=200)
 -----------------------------------------------

 ---------
 O2_O2_204
 ---------
 Symbolic Z-matrix:
 Charge = -1 Multiplicity = 4

                         Standard orientation:
 ---------------------------------------------------------------------
 Center     Atomic      Atomic             Coordinates (Angstroms)
 Number     Number       Type             X           Y           Z
 ---------------------------------------------------------------------
      1          8           0        0.000000    0.000000    3.020000
      2          8           0        0.000000    0.000000    1.860000
      3          8           0        0.000000    0.000000   -1.860000
      4          8           0        0.000000    0.000000   -3.020000
 ---------------------------------------------------------------------

 SCF Done:  E(ROHF) =  -299.225015647     A.U. after   13 cycles
 E2 =    -0.9650154247D+00 EUMP2 =    -0.30019003107151D+03
 CCSD(T)
 CCSD(T)= -0.30019852297D+03

 Unable to determine electronic state:  partially filled degenerate orbitals.
 Alpha  occ. eigenvalues --  -20.44398 -20.44398 -20.43445 -20.43445  -1.45646
 Alpha  occ. eigenvalues --   -1.45641  -0.88370  -0.88273  -0.56036  -0.56015
 Alpha  occ. eigenvalues --   -0.53997  -0.53971  -0.50420  -0.50125  -0.22940
 Alpha  occ. eigenvalues --   -0.22849  -0.20236  -0.20202
 Alpha virt. eigenvalues --    0.58345   0.68864   0.89183   0.90356   0.90978
 Alpha virt. eigenvalues --    0.91607   0.92239   0.98817   1.00922   1.02094
 Alpha virt. eigenvalues --    1.03193   1.03212   1.04508   1.10443   1.11639

 Mulliken charges and spin densities:
               1          2
     1  O   -0.284849   0.711226
     2  O   -0.215151   0.788774
     3  O   -0.215151   0.788774
     4  O   -0.284849   0.711226
 Sum of Mulliken charges =  -1.00000   3.00000

 Dipole moment (field-independent basis, Debye):
    X=             -0.0000    Y=              0.0000    Z=             -0.0000  Tot=              0.0000
 Quadrupole moment (field-independent basis, Debye-Ang):
   XX=            -21.3059   YY=            -22.4310   ZZ=            -56.4721
   XY=              0.0000   XZ=              0.0000   YZ=              0.0000

 Normal termination of Gaussian 16 at Sun Feb 18 00:52:41 2024.
