 Gaussian 16, Revision A.03,
 Gaussian 16:  ES64L-G16RevA.03 25-Dec-2016

 -----------------------------------------------
 #p ROCCSD(T,MaxCyc=200)/cc-pVTZ SCF(MaxCyc=200)
 -----------------------------------------------

 --------
 O2_O2_11
 --------
 Symbolic Z-matrix:
 Charge = -1 Multiplicity = 4

                         Standard orientation:
 ---------------------------------------------------------------------
 Center     Atomic      Atomic             Coordinates (Angstroms)
 Number     Number       Type             X           Y           Z
 ---------------------------------------------------------------------
      1          8           0       -0.870000   -0.850000    0.000000
      2          8           0        0.290000   -0.850000    0.000000
      3          8           0        0.290000    0.270000    0.000000
      4          8           0        0.290000    1.430000    0.000000
 ---------------------------------------------------------------------

 SCF Done:  E(ROHF) =  -298.692701074     A.U. after   19 cycles
 E2 =    -0.9677497447D+00 EUMP2 =    -0.29966045081895D+03
 CCSD(T)
 CCSD(T)= -0.29967776276D+03

 The electronic state is 4-A".
 Alpha  occ. eigenvalues --  -20.53740 -20.43243 -20.33933 -20.23004  -1.69960
 Alpha  occ. eigenvalues --   -1.40688  -1.08025  -0.79740  -0.71123  -0.65561
 Alpha  occ. eigenvalues --   -0.56973  -0.43337  -0.41690  -0.23612  -0.20561
 Alpha  occ. eigenvalues --   -0.13633  -0.09065   0.04608
 Alpha virt. eigenvalues --    0.66896   0.70415   0.83659   0.90262   0.93877
 Alpha virt. eigenvalues --    0.96747   0.99975   1.00905   1.09433   1.09651
 Alpha virt. eigenvalues --    1.12074   1.14452   1.19786   1.25228   1.35497

 Mulliken charges and spin densities:
               1          2
     1  O   -0.761546   0.165065
     2  O    0.040095   0.442308
     3  O    0.149843   1.456365
     4  O   -0.428393   0.936262
 Sum of Mulliken charges =  -1.00000   3.00000

 Dipole moment (field-independent basis, Debye):
    X=              2.3838    Y=             -0.2158    Z=              0.0000  Tot=              2.3935
 Quadrupole moment (field-independent basis, Debye-Ang):
   XX=            -25.5269   YY=            -32.3354   ZZ=            -21.7385
   XY=             -3.6797   XZ=              0.0000   YZ=              0.0000

 04\CCSD(T)=-299.6777628\RMSD=2.429e-09\PG=CS [SG(O4)]\\@
 Normal termination of Gaussian 16 at Sat Feb 17 20:30:15 2024.
