 Gaussian 16, Revision A.03,
 Gaussian 16:  ES64L-G16RevA.03 25-Dec-2016

 -----------------------------------------------
 #p ROCCSD(T,MaxCyc=200)/cc-pVTZ SCF(MaxCyc=200)
 -----------------------------------------------

 --------
 O2_O2_82
 --------
 Symbolic Z-matrix:
 Charge = -1 Multiplicity = 4

                         Standard orientation:
 ---------------------------------------------------------------------
 Center     Atomic      Atomic             Coordinates (Angstroms)
 Number     Number       Type             X           Y           Z
 ---------------------------------------------------------------------
      1          8           0        0.615183   -1.945183    0.000000
      2          8           0       -0.205061   -1.124939    0.000000
      3          8           0       -0.205061    0.955061   -0.000000
      4          8           0       -0.205061    2.115061   -0.000000
 ---------------------------------------------------------------------

 SCF Done:  E(ROHF) =  -299.221852017     A.U. after   24 cycles
 E2 =    -0.9642067631D+00 EUMP2 =    -0.30018605877983D+03
 CCSD(T)
 CCSD(T)= -0.30019953834D+03

 The electronic state is 4-A".
 Alpha  occ. eigenvalues --  -20.42781 -20.41813 -20.40468 -20.38660  -1.43759
 Alpha  occ. eigenvalues --   -1.42248  -0.88494  -0.83303  -0.54379  -0.53538
 Alpha  occ. eigenvalues --   -0.52256  -0.50364  -0.49761  -0.43484  -0.20936
 Alpha  occ. eigenvalues --   -0.18771  -0.18755  -0.15904
 Alpha virt. eigenvalues --    0.67973   0.71367   0.89215   0.90645   0.95625
 Alpha virt. eigenvalues --    0.96665   0.97965   1.02034   1.02858   1.04756
 Alpha virt. eigenvalues --    1.07572   1.12413   1.17069   1.17514   1.19405

 Mulliken charges and spin densities:
               1          2
     1  O   -0.347171   0.638394
     2  O   -0.170957   0.845305
     3  O   -0.150076   0.832924
     4  O   -0.331797   0.683378
 Sum of Mulliken charges =  -1.00000   3.00000

 Dipole moment (field-independent basis, Debye):
    X=             -0.3497    Y=              0.2144    Z=             -0.0000  Tot=              0.4102
 Quadrupole moment (field-independent basis, Debye-Ang):
   XX=            -22.7962   YY=            -38.9046   ZZ=            -22.5228
   XY=              3.2899   XZ=             -0.0000   YZ=              0.0000

 2\CCSD=-300.161362\CCSD(T)=-300.1995383\RMSD=5.163e-09\PG=CS [SG(O4)]\
 Normal termination of Gaussian 16 at Sat Feb 17 22:27:38 2024.
