 Gaussian 16, Revision A.03,
 Gaussian 16:  ES64L-G16RevA.03 25-Dec-2016

 -----------------------------------------------
 #p ROCCSD(T,MaxCyc=200)/cc-pVTZ SCF(MaxCyc=200)
 -----------------------------------------------

 ---------
 O2_O2_193
 ---------
 Symbolic Z-matrix:
 Charge = -1 Multiplicity = 4

                         Standard orientation:
 ---------------------------------------------------------------------
 Center     Atomic      Atomic             Coordinates (Angstroms)
 Number     Number       Type             X           Y           Z
 ---------------------------------------------------------------------
      1          8           0        0.615183   -2.685183   -0.000000
      2          8           0       -0.205061   -1.864939   -0.000000
      3          8           0       -0.205061    1.695061    0.000000
      4          8           0       -0.205061    2.855061    0.000000
 ---------------------------------------------------------------------

 SCF Done:  E(ROHF) =  -299.225514419     A.U. after   22 cycles
 E2 =    -0.9648479581D+00 EUMP2 =    -0.30019036237751D+03
 CCSD(T)
 CCSD(T)= -0.30019921502D+03

 The electronic state is 4-A".
 Alpha  occ. eigenvalues --  -20.44134 -20.44131 -20.43207 -20.43092  -1.45358
 Alpha  occ. eigenvalues --   -1.45340  -0.88117  -0.87966  -0.55737  -0.55709
 Alpha  occ. eigenvalues --   -0.53721  -0.53670  -0.50179  -0.49825  -0.22629
 Alpha  occ. eigenvalues --   -0.22558  -0.19965  -0.19905
 Alpha virt. eigenvalues --    0.59967   0.67579   0.88060   0.90732   0.91704
 Alpha virt. eigenvalues --    0.92290   0.92657   0.97334   1.01828   1.02032
 Alpha virt. eigenvalues --    1.02768   1.04577   1.05180   1.10655   1.11918

 Mulliken charges and spin densities:
               1          2
     1  O   -0.282442   0.714092
     2  O   -0.216457   0.786339
     3  O   -0.212905   0.791955
     4  O   -0.288196   0.707613
 Sum of Mulliken charges =  -1.00000   3.00000

 Dipole moment (field-independent basis, Debye):
    X=             -0.1179    Y=             -0.1016    Z=             -0.0000  Tot=              0.1557
 Quadrupole moment (field-independent basis, Debye-Ang):
   XX=            -22.5974   YY=            -51.3576   ZZ=            -22.4351
   XY=              3.6477   XZ=              0.0000   YZ=             -0.0000

 9\CCSD=-300.1615772\CCSD(T)=-300.199215\RMSD=9.621e-09\PG=CS [SG(O4)]\
 Normal termination of Gaussian 16 at Sun Feb 18 00:44:56 2024.
