 Gaussian 16, Revision A.03,
 Gaussian 16:  ES64L-G16RevA.03 25-Dec-2016

 -----------------------------------------------
 #p ROCCSD(T,MaxCyc=200)/cc-pVTZ SCF(MaxCyc=200)
 -----------------------------------------------

 ---------
 O2_O2_234
 ---------
 Symbolic Z-matrix:
 Charge = -1 Multiplicity = 4

                         Standard orientation:
 ---------------------------------------------------------------------
 Center     Atomic      Atomic             Coordinates (Angstroms)
 Number     Number       Type             X           Y           Z
 ---------------------------------------------------------------------
      1          8           0        0.000000    0.000000    3.220000
      2          8           0        0.000000    0.000000    2.060000
      3          8           0        0.000000    0.000000   -2.060000
      4          8           0        0.000000    0.000000   -3.220000
 ---------------------------------------------------------------------

 SCF Done:  E(ROHF) =  -299.223719228     A.U. after   13 cycles
 E2 =    -0.9652355416D+00 EUMP2 =    -0.30018895476924D+03
 CCSD(T)
 CCSD(T)= -0.30019693832D+03

 Unable to determine electronic state:  partially filled degenerate orbitals.
 Alpha  occ. eigenvalues --  -20.44682 -20.44682 -20.43909 -20.43909  -1.46021
 Alpha  occ. eigenvalues --   -1.46020  -0.88741  -0.88709  -0.56410  -0.56403
 Alpha  occ. eigenvalues --   -0.54373  -0.54368  -0.50748  -0.50626  -0.23302
 Alpha  occ. eigenvalues --   -0.23268  -0.20711  -0.20542
 Alpha virt. eigenvalues --    0.59766   0.66794   0.90192   0.90422   0.90943
 Alpha virt. eigenvalues --    0.91447   0.91673   0.96447   1.01175   1.02037
 Alpha virt. eigenvalues --    1.02477   1.02887   1.03213   1.07063   1.11281

 Mulliken charges and spin densities:
               1          2
     1  O   -0.280865   0.716631
     2  O   -0.219135   0.783369
     3  O   -0.219135   0.783369
     4  O   -0.280865   0.716631
 Sum of Mulliken charges =  -1.00000   3.00000

 Dipole moment (field-independent basis, Debye):
    X=             -0.0000    Y=             -0.0000    Z=              0.0000  Tot=              0.0000
 Quadrupole moment (field-independent basis, Debye-Ang):
   XX=            -22.4143   YY=            -21.3023   ZZ=            -61.2162
   XY=              0.0000   XZ=              0.0000   YZ=              0.0000

 Normal termination of Gaussian 16 at Sun Feb 18 01:09:22 2024.
