 Gaussian 16, Revision A.03,
 Gaussian 16:  ES64L-G16RevA.03 25-Dec-2016

 -----------------------------------------------
 #p ROCCSD(T,MaxCyc=200)/cc-pVTZ SCF(MaxCyc=200)
 -----------------------------------------------

 ---------
 O2_O2_255
 ---------
 Symbolic Z-matrix:
 Charge = -1 Multiplicity = 4

                         Standard orientation:
 ---------------------------------------------------------------------
 Center     Atomic      Atomic             Coordinates (Angstroms)
 Number     Number       Type             X           Y           Z
 ---------------------------------------------------------------------
      1          8           0        0.000000    0.000000    3.360000
      2          8           0        0.000000    0.000000    2.200000
      3          8           0        0.000000    0.000000   -2.200000
      4          8           0        0.000000    0.000000   -3.360000
 ---------------------------------------------------------------------

 SCF Done:  E(ROHF) =  -299.223831213     A.U. after   13 cycles
 E2 =    -0.9654560217D+00 EUMP2 =    -0.30018928723513D+03
 CCSD(T)
 CCSD(T)= -0.30019694843D+03

 Unable to determine electronic state:  partially filled degenerate orbitals.
 Alpha  occ. eigenvalues --  -20.44919 -20.44919 -20.44215 -20.44215  -1.46285
 Alpha  occ. eigenvalues --   -1.46284  -0.89006  -0.88992  -0.56672  -0.56669
 Alpha  occ. eigenvalues --   -0.54634  -0.54633  -0.50998  -0.50935  -0.23562
 Alpha  occ. eigenvalues --   -0.23546  -0.20967  -0.20818
 Alpha virt. eigenvalues --    0.60887   0.65367   0.90006   0.90111   0.91261
 Alpha virt. eigenvalues --    0.91362   0.91920   0.95036   1.01136   1.01535
 Alpha virt. eigenvalues --    1.02439   1.02709   1.02953   1.05383   1.11035

 Mulliken charges and spin densities:
               1          2
     1  O   -0.278048   0.719848
     2  O   -0.221952   0.780152
     3  O   -0.221952   0.780152
     4  O   -0.278048   0.719848
 Sum of Mulliken charges =  -1.00000   3.00000

 Dipole moment (field-independent basis, Debye):
    X=             -0.0000    Y=              0.0000    Z=             -0.0000  Tot=              0.0000
 Quadrupole moment (field-independent basis, Debye-Ang):
   XX=            -21.3011   YY=            -22.4152   ZZ=            -64.7403
   XY=              0.0000   XZ=              0.0000   YZ=              0.0000

 312\PMP2-0=-300.1892872\MP4SDQ=-300.1622086\CCSD=-300.1593801\CCSD(T)=
 Normal termination of Gaussian 16 at Sun Feb 18 01:20:20 2024.
