 Gaussian 16, Revision A.03,
 Gaussian 16:  ES64L-G16RevA.03 25-Dec-2016

 -----------------------------------------------
 #p ROCCSD(T,MaxCyc=200)/cc-pVTZ SCF(MaxCyc=200)
 -----------------------------------------------

 --------
 O2_O2_83
 --------
 Symbolic Z-matrix:
 Charge = -1 Multiplicity = 4

                         Standard orientation:
 ---------------------------------------------------------------------
 Center     Atomic      Atomic             Coordinates (Angstroms)
 Number     Number       Type             X           Y           Z
 ---------------------------------------------------------------------
      1          8           0       -0.870000   -1.330000    0.000000
      2          8           0        0.290000   -1.330000    0.000000
      3          8           0        0.290000    0.750000    0.000000
      4          8           0        0.290000    1.910000    0.000000
 ---------------------------------------------------------------------

 SCF Done:  E(ROHF) =  -299.221771004     A.U. after   22 cycles
 E2 =    -0.9634189560D+00 EUMP2 =    -0.30018518995948D+03
 CCSD(T)
 CCSD(T)= -0.30019900815D+03

 The electronic state is 4-A'.
 Alpha  occ. eigenvalues --  -20.41015 -20.40507 -20.40255 -20.38541  -1.42802
 Alpha  occ. eigenvalues --   -1.41489  -0.86532  -0.83763  -0.53413  -0.53412
 Alpha  occ. eigenvalues --   -0.51557  -0.50335  -0.47334  -0.42666  -0.20068
 Alpha  occ. eigenvalues --   -0.18552  -0.17926  -0.14859
 Alpha virt. eigenvalues --    0.65919   0.71500   0.89754   0.94416   0.95223
 Alpha virt. eigenvalues --    0.96595   0.96883   1.02266   1.03285   1.04207
 Alpha virt. eigenvalues --    1.06233   1.10927   1.14578   1.16970   1.23932

 Mulliken charges and spin densities:
               1          2
     1  O   -0.279984   0.720150
     2  O   -0.217866   0.783656
     3  O   -0.151421   0.831445
     4  O   -0.350730   0.664749
 Sum of Mulliken charges =  -1.00000   3.00000

 Dipole moment (field-independent basis, Debye):
    X=              0.1893    Y=             -0.4235    Z=              0.0000  Tot=              0.4639
 Quadrupole moment (field-independent basis, Debye-Ang):
   XX=            -24.5139   YY=            -34.8976   ZZ=            -21.3304
   XY=             -2.2101   XZ=              0.0000   YZ=              0.0000

 Normal termination of Gaussian 16 at Sat Feb 17 22:29:16 2024.
