 Gaussian 16, Revision A.03,
 Gaussian 16:  ES64L-G16RevA.03 25-Dec-2016

 -----------------------------------------------
 #p ROCCSD(T,MaxCyc=200)/cc-pVTZ SCF(MaxCyc=200)
 -----------------------------------------------

 --------
 O2_O2_65
 --------
 Symbolic Z-matrix:
 Charge = -1 Multiplicity = 4

                         Standard orientation:
 ---------------------------------------------------------------------
 Center     Atomic      Atomic             Coordinates (Angstroms)
 Number     Number       Type             X           Y           Z
 ---------------------------------------------------------------------
      1          8           0       -0.870000   -1.210000    0.000000
      2          8           0        0.290000   -1.210000    0.000000
      3          8           0        0.290000    0.630000    0.000000
      4          8           0        0.290000    1.790000    0.000000
 ---------------------------------------------------------------------

 SCF Done:  E(ROHF) =  -299.188967800     A.U. after   24 cycles
 E2 =    -0.9637858216D+00 EUMP2 =    -0.30015275362159D+03
 CCSD(T)
 CCSD(T)= -0.30016780074D+03

 The electronic state is 4-A'.
 Alpha  occ. eigenvalues --  -20.40167 -20.39108 -20.38806 -20.37630  -1.42907
 Alpha  occ. eigenvalues --   -1.40305  -0.87811  -0.82274  -0.54638  -0.53461
 Alpha  occ. eigenvalues --   -0.50253  -0.50210  -0.46173  -0.39034  -0.19840
 Alpha  occ. eigenvalues --   -0.17460  -0.17289  -0.13289
 Alpha virt. eigenvalues --    0.66518   0.72132   0.90941   0.92889   0.95880
 Alpha virt. eigenvalues --    0.96583   0.97893   1.04651   1.04975   1.06367
 Alpha virt. eigenvalues --    1.06937   1.11862   1.15007   1.22268   1.25731

 Mulliken charges and spin densities:
               1          2
     1  O   -0.293977   0.706806
     2  O   -0.215912   0.776340
     3  O   -0.129541   0.846539
     4  O   -0.360569   0.670315
 Sum of Mulliken charges =  -1.00000   3.00000

 Dipole moment (field-independent basis, Debye):
    X=              0.3055    Y=             -0.3162    Z=              0.0000  Tot=              0.4397
 Quadrupole moment (field-independent basis, Debye-Ang):
   XX=            -24.4989   YY=            -33.8712   ZZ=            -21.3030
   XY=             -2.1036   XZ=              0.0000   YZ=              0.0000

 \CCSD(T)=-300.1678007\RMSD=7.612e-09\PG=CS [SG(O4)]\\@
 Normal termination of Gaussian 16 at Sat Feb 17 21:59:50 2024.
