 Gaussian 16, Revision A.03,
 Gaussian 16:  ES64L-G16RevA.03 25-Dec-2016

 -----------------------------------------------
 #p ROCCSD(T,MaxCyc=200)/cc-pVTZ SCF(MaxCyc=200)
 -----------------------------------------------

 --------
 O2_O2_66
 --------
 Symbolic Z-matrix:
 Charge = -1 Multiplicity = 4

                         Standard orientation:
 ---------------------------------------------------------------------
 Center     Atomic      Atomic             Coordinates (Angstroms)
 Number     Number       Type             X           Y           Z
 ---------------------------------------------------------------------
      1          8           0        0.000000    0.000000    2.100000
      2          8           0        0.000000    0.000000    0.940000
      3          8           0        0.000000    0.000000   -0.940000
      4          8           0        0.000000    0.000000   -2.100000
 ---------------------------------------------------------------------

 SCF Done:  E(ROHF) =  -299.205240438     A.U. after   13 cycles
 E2 =    -0.9641258077D+00 EUMP2 =    -0.30016936624592D+03
 CCSD(T)
 CCSD(T)= -0.30018370970D+03

 Unable to determine electronic state:  an orbital has unidentified symmetry.
 Alpha  occ. eigenvalues --  -20.41310 -20.41307 -20.39075 -20.39074  -1.43144
 Alpha  occ. eigenvalues --   -1.42063  -0.90168  -0.81501  -0.53890  -0.52384
 Alpha  occ. eigenvalues --   -0.51934  -0.51933  -0.49893  -0.39649  -0.21677
 Alpha  occ. eigenvalues --   -0.18865  -0.17549  -0.14807
 Alpha virt. eigenvalues --    0.70144   0.71596   0.90412   0.91583   0.95488
 Alpha virt. eigenvalues --    0.96966   0.99581   1.01631   1.03084   1.06122
 Alpha virt. eigenvalues --    1.12467   1.13013   1.20257   1.21465   1.22474

 Mulliken charges and spin densities:
               1          2
     1  O   -0.351606   0.673971
     2  O   -0.148394   0.826029
     3  O   -0.148394   0.826029
     4  O   -0.351606   0.673971
 Sum of Mulliken charges =  -1.00000   3.00000

 Dipole moment (field-independent basis, Debye):
    X=             -0.0000    Y=             -0.0000    Z=              0.0000  Tot=              0.0000
 Quadrupole moment (field-independent basis, Debye-Ang):
   XX=            -22.5219   YY=            -21.3077   ZZ=            -40.4137
   XY=              0.0000   XZ=              0.0000   YZ=              0.0000

 404\PMP2-0=-300.1693662\MP4SDQ=-300.1494061\CCSD=-300.1455533\CCSD(T)=
 Normal termination of Gaussian 16 at Sat Feb 17 22:01:13 2024.
