 Gaussian 16, Revision A.03,
 Gaussian 16:  ES64L-G16RevA.03 25-Dec-2016

 -----------------------------------------------
 #p ROCCSD(T,MaxCyc=200)/cc-pVTZ SCF(MaxCyc=200)
 -----------------------------------------------

 ---------
 O2_O2_102
 ---------
 Symbolic Z-matrix:
 Charge = -1 Multiplicity = 4

                         Standard orientation:
 ---------------------------------------------------------------------
 Center     Atomic      Atomic             Coordinates (Angstroms)
 Number     Number       Type             X           Y           Z
 ---------------------------------------------------------------------
      1          8           0        0.000000    0.000000    2.340000
      2          8           0        0.000000    0.000000    1.180000
      3          8           0        0.000000    0.000000   -1.180000
      4          8           0        0.000000    0.000000   -2.340000
 ---------------------------------------------------------------------

 SCF Done:  E(ROHF) =  -299.230734288     A.U. after   14 cycles
 E2 =    -0.9641352594D+00 EUMP2 =    -0.30019486954738D+03
 CCSD(T)
 CCSD(T)= -0.30020679314D+03

 Unable to determine electronic state:  an orbital has unidentified symmetry.
 Alpha  occ. eigenvalues --  -20.42896 -20.42895 -20.40867 -20.40867  -1.43861
 Alpha  occ. eigenvalues --   -1.43608  -0.87701  -0.84992  -0.54373  -0.53769
 Alpha  occ. eigenvalues --   -0.52334  -0.51704  -0.50451  -0.45609  -0.21641
 Alpha  occ. eigenvalues --   -0.20081  -0.18851  -0.17336
 Alpha virt. eigenvalues --    0.67459   0.71439   0.89087   0.90281   0.94110
 Alpha virt. eigenvalues --    0.94728   0.95449   0.99397   1.00697   1.04377
 Alpha virt. eigenvalues --    1.11500   1.12340   1.13322   1.14865   1.16207

 Mulliken charges and spin densities:
               1          2
     1  O   -0.326251   0.680082
     2  O   -0.173749   0.819918
     3  O   -0.173749   0.819918
     4  O   -0.326251   0.680082
 Sum of Mulliken charges =  -1.00000   3.00000

 Dipole moment (field-independent basis, Debye):
    X=             -0.0000    Y=              0.0000    Z=              0.0000  Tot=              0.0000
 Quadrupole moment (field-independent basis, Debye-Ang):
   XX=            -21.3273   YY=            -22.5218   ZZ=            -43.5298
   XY=              0.0000   XZ=              0.0000   YZ=              0.0000

 7343\PMP2-0=-300.1948695\MP4SDQ=-300.172366\CCSD=-300.1689198\CCSD(T)=
 Normal termination of Gaussian 16 at Sat Feb 17 22:57:58 2024.
