 Gaussian 16, Revision A.03,
 Gaussian 16:  ES64L-G16RevA.03 25-Dec-2016

 -----------------------------------------------
 #p ROCCSD(T,MaxCyc=200)/cc-pVTZ SCF(MaxCyc=200)
 -----------------------------------------------

 --------
 O2_O2_31
 --------
 Symbolic Z-matrix:
 Charge = -1 Multiplicity = 4

                         Standard orientation:
 ---------------------------------------------------------------------
 Center     Atomic      Atomic             Coordinates (Angstroms)
 Number     Number       Type             X           Y           Z
 ---------------------------------------------------------------------
      1          8           0        0.615183   -1.605183   -0.000000
      2          8           0       -0.205061   -0.784939   -0.000000
      3          8           0       -0.205061    0.615061    0.000000
      4          8           0       -0.205061    1.775061    0.000000
 ---------------------------------------------------------------------

 SCF Done:  E(ROHF) =  -299.035093184     A.U. after   19 cycles
 E2 =    -0.9406127805D+00 EUMP2 =    -0.29997570596454D+03
 CCSD(T)
 CCSD(T)= -0.30000892169D+03

 The electronic state is 4-A".
 Alpha  occ. eigenvalues --  -20.48008 -20.35925 -20.34965 -20.33525  -1.48890
 Alpha  occ. eigenvalues --   -1.38060  -1.04040  -0.75593  -0.58991  -0.58378
 Alpha  occ. eigenvalues --   -0.54374  -0.46898  -0.45182  -0.29315  -0.22189
 Alpha  occ. eigenvalues --   -0.17127  -0.11622  -0.09897
 Alpha virt. eigenvalues --    0.70166   0.74746   0.91847   0.91901   0.92644
 Alpha virt. eigenvalues --    0.97827   1.00186   1.01991   1.03719   1.07442
 Alpha virt. eigenvalues --    1.11994   1.13225   1.19693   1.24155   1.29469

 Mulliken charges and spin densities:
               1          2
     1  O   -0.465135   0.508294
     2  O    0.146151   1.154644
     3  O   -0.278708   0.656379
     4  O   -0.402309   0.680684
 Sum of Mulliken charges =  -1.00000   3.00000

 Dipole moment (field-independent basis, Debye):
    X=             -0.5910    Y=             -0.9178    Z=             -0.0000  Tot=              1.0916
 Quadrupole moment (field-independent basis, Debye-Ang):
   XX=            -23.1292   YY=            -36.8495   ZZ=            -22.0627
   XY=              3.4724   XZ=             -0.0000   YZ=             -0.0000

 58\CCSD=-299.9695794\CCSD(T)=-300.0089217\RMSD=9.663e-09\PG=CS [SG(O4)
 Normal termination of Gaussian 16 at Sat Feb 17 21:03:58 2024.
