 Gaussian 16, Revision A.03,
 Gaussian 16:  ES64L-G16RevA.03 25-Dec-2016

 -----------------------------------------------
 #p ROCCSD(T,MaxCyc=200)/cc-pVTZ SCF(MaxCyc=200)
 -----------------------------------------------

 ---------
 O2_O2_148
 ---------
 Symbolic Z-matrix:
 Charge = -1 Multiplicity = 4

                         Standard orientation:
 ---------------------------------------------------------------------
 Center     Atomic      Atomic             Coordinates (Angstroms)
 Number     Number       Type             X           Y           Z
 ---------------------------------------------------------------------
      1          8           0        0.615183   -2.385183   -0.000000
      2          8           0       -0.205061   -1.564939    0.000000
      3          8           0       -0.205061    1.395061    0.000000
      4          8           0       -0.205061    2.555061    0.000000
 ---------------------------------------------------------------------

 SCF Done:  E(ROHF) =  -299.228019389     A.U. after   24 cycles
 E2 =    -0.9645705987D+00 EUMP2 =    -0.30019258998803D+03
 CCSD(T)
 CCSD(T)= -0.30020273480D+03

 The electronic state is 4-A".
 Alpha  occ. eigenvalues --  -20.43581 -20.43521 -20.42139 -20.42133  -1.44612
 Alpha  occ. eigenvalues --   -1.44515  -0.87508  -0.86919  -0.55012  -0.54876
 Alpha  occ. eigenvalues --   -0.52980  -0.52808  -0.49727  -0.48541  -0.21892
 Alpha  occ. eigenvalues --   -0.21643  -0.19258  -0.18919
 Alpha virt. eigenvalues --    0.62361   0.69050   0.88139   0.90339   0.91135
 Alpha virt. eigenvalues --    0.93684   0.94071   0.98376   1.01068   1.03247
 Alpha virt. eigenvalues --    1.05262   1.06838   1.09167   1.10994   1.12652

 Mulliken charges and spin densities:
               1          2
     1  O   -0.294271   0.699729
     2  O   -0.205504   0.800102
     3  O   -0.201775   0.804240
     4  O   -0.298450   0.695929
 Sum of Mulliken charges =  -1.00000   3.00000

 Dipole moment (field-independent basis, Debye):
    X=             -0.1621    Y=             -0.0942    Z=             -0.0000  Tot=              0.1874
 Quadrupole moment (field-independent basis, Debye-Ang):
   XX=            -22.6331   YY=            -45.4993   ZZ=            -22.4655
   XY=              3.4343   XZ=              0.0000   YZ=             -0.0000

 CSD=-300.1649302\CCSD(T)=-300.2027348\RMSD=7.228e-09\PG=CS [SG(O4)]\\@
 Normal termination of Gaussian 16 at Sat Feb 17 23:55:33 2024.
