 Gaussian 16, Revision A.03,
 Gaussian 16:  ES64L-G16RevA.03 25-Dec-2016

 -----------------------------------------------
 #p ROCCSD(T,MaxCyc=200)/cc-pVTZ SCF(MaxCyc=200)
 -----------------------------------------------

 --------
 O2_O2_30
 --------
 Symbolic Z-matrix:
 Charge = -1 Multiplicity = 4

                         Standard orientation:
 ---------------------------------------------------------------------
 Center     Atomic      Atomic             Coordinates (Angstroms)
 Number     Number       Type             X           Y           Z
 ---------------------------------------------------------------------
      1          8           0        0.000000    0.000000    1.860000
      2          8           0        0.000000    0.000000    0.700000
      3          8           0        0.000000    0.000000   -0.700000
      4          8           0        0.000000    0.000000   -1.860000
 ---------------------------------------------------------------------

 SCF Done:  E(ROHF) =  -298.983365895     A.U. after   13 cycles
 E2 =    -0.9720826820D+00 EUMP2 =    -0.29995544857720D+03
 CCSD(T)
 CCSD(T)= -0.29997382727D+03

 Unable to determine electronic state:  an orbital has unidentified symmetry.
 Alpha  occ. eigenvalues --  -20.37564 -20.37563 -20.35871 -20.35871  -1.44159
 Alpha  occ. eigenvalues --   -1.38981  -1.01547  -0.74866  -0.55531  -0.55178
 Alpha  occ. eigenvalues --   -0.53724  -0.48473  -0.46321  -0.23534  -0.21464
 Alpha  occ. eigenvalues --   -0.20362  -0.11954  -0.09620
 Alpha virt. eigenvalues --    0.71017   0.72577   0.92397   0.93514   0.95506
 Alpha virt. eigenvalues --    0.96972   0.98932   1.01128   1.06733   1.08229
 Alpha virt. eigenvalues --    1.12703   1.24178   1.24777   1.25546   1.34425

 Mulliken charges and spin densities:
               1          2
     1  O   -0.346516   0.733633
     2  O   -0.153484   0.766367
     3  O   -0.153484   0.766367
     4  O   -0.346516   0.733633
 Sum of Mulliken charges =  -1.00000   3.00000

 Dipole moment (field-independent basis, Debye):
    X=             -0.0000    Y=              0.0000    Z=              0.0000  Tot=              0.0000
 Quadrupole moment (field-independent basis, Debye-Ang):
   XX=            -22.2666   YY=            -21.0992   ZZ=            -38.6538
   XY=              0.0000   XZ=              0.0000   YZ=             -0.0000

 9\PMP2-0=-299.9554486\MP4SDQ=-299.9377552\CCSD=-299.933543\CCSD(T)=-29
 Normal termination of Gaussian 16 at Sat Feb 17 21:01:22 2024.
