 Gaussian 16, Revision A.03,
 Gaussian 16:  ES64L-G16RevA.03 25-Dec-2016

 -----------------------------------------------
 #p ROCCSD(T,MaxCyc=200)/cc-pVTZ SCF(MaxCyc=200)
 -----------------------------------------------

 ---------
 O2_O2_184
 ---------
 Symbolic Z-matrix:
 Charge = -1 Multiplicity = 4

                         Standard orientation:
 ---------------------------------------------------------------------
 Center     Atomic      Atomic             Coordinates (Angstroms)
 Number     Number       Type             X           Y           Z
 ---------------------------------------------------------------------
      1          8           0        0.615183   -2.625183    0.000000
      2          8           0       -0.205061   -1.804939    0.000000
      3          8           0       -0.205061    1.635061   -0.000000
      4          8           0       -0.205061    2.795061   -0.000000
 ---------------------------------------------------------------------

 SCF Done:  E(ROHF) =  -299.225880111     A.U. after   19 cycles
 E2 =    -0.9647941685D+00 EUMP2 =    -0.30019067427930D+03
 CCSD(T)
 CCSD(T)= -0.30019974711D+03

 The electronic state is 4-A".
 Alpha  occ. eigenvalues --  -20.44023 -20.44022 -20.43028 -20.42915  -1.45216
 Alpha  occ. eigenvalues --   -1.45196  -0.87988  -0.87793  -0.55599  -0.55560
 Alpha  occ. eigenvalues --   -0.53581  -0.53520  -0.50072  -0.49622  -0.22490
 Alpha  occ. eigenvalues --   -0.22399  -0.19820  -0.19747
 Alpha virt. eigenvalues --    0.60073   0.67914   0.87743   0.90729   0.91674
 Alpha virt. eigenvalues --    0.92500   0.92903   0.97604   1.01849   1.02009
 Alpha virt. eigenvalues --    1.03133   1.04923   1.05779   1.10829   1.12049

 Mulliken charges and spin densities:
               1          2
     1  O   -0.284210   0.711875
     2  O   -0.214613   0.788558
     3  O   -0.211354   0.794059
     4  O   -0.289823   0.705508
 Sum of Mulliken charges =  -1.00000   3.00000

 Dipole moment (field-independent basis, Debye):
    X=             -0.1248    Y=             -0.1049    Z=              0.0000  Tot=              0.1631
 Quadrupole moment (field-independent basis, Debye-Ang):
   XX=            -22.6027   YY=            -50.1099   ZZ=            -22.4396
   XY=              3.6023   XZ=             -0.0000   YZ=              0.0000

 50737\CCSD=-300.1620784\CCSD(T)=-300.1997471\RMSD=5.320e-09\PG=CS [SG(
 Normal termination of Gaussian 16 at Sun Feb 18 00:35:28 2024.
