 Gaussian 16, Revision A.03,
 Gaussian 16:  ES64L-G16RevA.03 25-Dec-2016

 -----------------------------------------------
 #p ROCCSD(T,MaxCyc=200)/cc-pVTZ SCF(MaxCyc=200)
 -----------------------------------------------

 ---------
 O2_O2_246
 ---------
 Symbolic Z-matrix:
 Charge = -1 Multiplicity = 4

                         Standard orientation:
 ---------------------------------------------------------------------
 Center     Atomic      Atomic             Coordinates (Angstroms)
 Number     Number       Type             X           Y           Z
 ---------------------------------------------------------------------
      1          8           0        0.000000    0.000000    3.300000
      2          8           0        0.000000    0.000000    2.140000
      3          8           0        0.000000    0.000000   -2.140000
      4          8           0        0.000000    0.000000   -3.300000
 ---------------------------------------------------------------------

 SCF Done:  E(ROHF) =  -299.223794073     A.U. after   13 cycles
 E2 =    -0.9653607595D+00 EUMP2 =    -0.30018915483211D+03
 CCSD(T)
 CCSD(T)= -0.30019694829D+03

 Unable to determine electronic state:  partially filled degenerate orbitals.
 Alpha  occ. eigenvalues --  -20.44821 -20.44821 -20.44088 -20.44088  -1.46175
 Alpha  occ. eigenvalues --   -1.46175  -0.88896  -0.88876  -0.56563  -0.56558
 Alpha  occ. eigenvalues --   -0.54526  -0.54523  -0.50893  -0.50809  -0.23453
 Alpha  occ. eigenvalues --   -0.23431  -0.20860  -0.20704
 Alpha virt. eigenvalues --    0.60438   0.65955   0.90089   0.90237   0.91343
 Alpha virt. eigenvalues --    0.91487   0.91552   0.95593   1.01167   1.01727
 Alpha virt. eigenvalues --    1.02470   1.02902   1.02907   1.05998   1.11138

 Mulliken charges and spin densities:
               1          2
     1  O   -0.279225   0.718526
     2  O   -0.220775   0.781474
     3  O   -0.220775   0.781474
     4  O   -0.279225   0.718526
 Sum of Mulliken charges =  -1.00000   3.00000

 Dipole moment (field-independent basis, Debye):
    X=             -0.0000    Y=              0.0000    Z=              0.0000  Tot=              0.0000
 Quadrupole moment (field-independent basis, Debye-Ang):
   XX=            -22.4149   YY=            -21.3016   ZZ=            -63.2051
   XY=              0.0000   XZ=              0.0000   YZ=              0.0000

 Normal termination of Gaussian 16 at Sun Feb 18 01:15:44 2024.
