 Gaussian 16, Revision A.03,
 Gaussian 16:  ES64L-G16RevA.03 25-Dec-2016

 -----------------------------------------------
 #p ROCCSD(T,MaxCyc=200)/cc-pVTZ SCF(MaxCyc=200)
 -----------------------------------------------

 --------
 O2_O2_50
 --------
 Symbolic Z-matrix:
 Charge = -1 Multiplicity = 4

                         Standard orientation:
 ---------------------------------------------------------------------
 Center     Atomic      Atomic             Coordinates (Angstroms)
 Number     Number       Type             X           Y           Z
 ---------------------------------------------------------------------
      1          8           0       -0.870000   -1.110000    0.000000
      2          8           0        0.290000   -1.110000    0.000000
      3          8           0        0.290000    0.530000    0.000000
      4          8           0        0.290000    1.690000    0.000000
 ---------------------------------------------------------------------

 SCF Done:  E(ROHF) =  -299.138075013     A.U. after   26 cycles
 E2 =    -0.9194650029D+00 EUMP2 =    -0.30005754001575D+03
 CCSD(T)
 CCSD(T)= -0.30009962944D+03

 The electronic state is 4-A".
 Alpha  occ. eigenvalues --  -20.51352 -20.43548 -20.27382 -20.26995  -1.51117
 Alpha  occ. eigenvalues --   -1.31352  -0.94586  -0.79791  -0.59954  -0.58608
 Alpha  occ. eigenvalues --   -0.53920  -0.43112  -0.39072  -0.33269  -0.26113
 Alpha  occ. eigenvalues --   -0.22872  -0.08657  -0.05349
 Alpha virt. eigenvalues --    0.62294   0.75791   0.85834   0.90574   0.92540
 Alpha virt. eigenvalues --    0.98675   0.99953   1.01207   1.04556   1.08686
 Alpha virt. eigenvalues --    1.14483   1.17201   1.19059   1.25847   1.26623

 Mulliken charges and spin densities:
               1          2
     1  O   -0.210833   0.737309
     2  O    0.093306   1.162708
     3  O   -0.395461   0.547684
     4  O   -0.487012   0.552299
 Sum of Mulliken charges =  -1.00000   3.00000

 Dipole moment (field-independent basis, Debye):
    X=             -0.1778    Y=             -3.8332    Z=              0.0000  Tot=              3.8373
 Quadrupole moment (field-independent basis, Debye-Ang):
   XX=            -23.3811   YY=            -32.8713   ZZ=            -22.2055
   XY=             -2.7988   XZ=              0.0000   YZ=              0.0000

 Normal termination of Gaussian 16 at Sat Feb 17 21:36:11 2024.
