 Gaussian 16, Revision A.03,
 Gaussian 16:  ES64L-G16RevA.03 25-Dec-2016

 -----------------------------------------------
 #p ROCCSD(T,MaxCyc=200)/cc-pVTZ SCF(MaxCyc=200)
 -----------------------------------------------

 ---------
 O2_O2_107
 ---------
 Symbolic Z-matrix:
 Charge = -1 Multiplicity = 4

                         Standard orientation:
 ---------------------------------------------------------------------
 Center     Atomic      Atomic             Coordinates (Angstroms)
 Number     Number       Type             X           Y           Z
 ---------------------------------------------------------------------
      1          8           0       -0.870000   -1.490000    0.000000
      2          8           0        0.290000   -1.490000    0.000000
      3          8           0        0.290000    0.910000    0.000000
      4          8           0        0.290000    2.070000    0.000000
 ---------------------------------------------------------------------

 SCF Done:  E(ROHF) =  -299.233267527     A.U. after   25 cycles
 E2 =    -0.9635137740D+00 EUMP2 =    -0.30019678130137D+03
 CCSD(T)
 CCSD(T)= -0.30020939498D+03

 The electronic state is 4-A'.
 Alpha  occ. eigenvalues --  -20.42077 -20.41458 -20.41360 -20.39792  -1.43190
 Alpha  occ. eigenvalues --   -1.42656  -0.86299  -0.85081  -0.53752  -0.52863
 Alpha  occ. eigenvalues --   -0.52532  -0.51065  -0.48181  -0.45612  -0.20575
 Alpha  occ. eigenvalues --   -0.19768  -0.18276  -0.16384
 Alpha virt. eigenvalues --    0.65235   0.70172   0.89063   0.92190   0.95051
 Alpha virt. eigenvalues --    0.95668   0.96522   0.99621   1.00933   1.03446
 Alpha virt. eigenvalues --    1.05815   1.09286   1.10809   1.13944   1.20963

 Mulliken charges and spin densities:
               1          2
     1  O   -0.271538   0.727761
     2  O   -0.225080   0.776751
     3  O   -0.172976   0.824689
     4  O   -0.330405   0.670799
 Sum of Mulliken charges =  -1.00000   3.00000

 Dipole moment (field-independent basis, Debye):
    X=              0.1214    Y=             -0.3942    Z=              0.0000  Tot=              0.4125
 Quadrupole moment (field-independent basis, Debye-Ang):
   XX=            -24.5042   YY=            -36.6896   ZZ=            -21.3321
   XY=             -2.3872   XZ=              0.0000   YZ=              0.0000

 23\CCSD(T)=-300.209395\RMSD=3.141e-09\PG=CS [SG(O4)]\\@
 Normal termination of Gaussian 16 at Sat Feb 17 23:05:16 2024.
