 Gaussian 16, Revision A.03,
 Gaussian 16:  ES64L-G16RevA.03 25-Dec-2016

 -----------------------------------------------
 #p ROCCSD(T,MaxCyc=200)/cc-pVTZ SCF(MaxCyc=200)
 -----------------------------------------------

 ---------
 O2_O2_127
 ---------
 Symbolic Z-matrix:
 Charge = -1 Multiplicity = 4

                         Standard orientation:
 ---------------------------------------------------------------------
 Center     Atomic      Atomic             Coordinates (Angstroms)
 Number     Number       Type             X           Y           Z
 ---------------------------------------------------------------------
      1          8           0        0.615183   -2.245183   -0.000000
      2          8           0       -0.205061   -1.424939   -0.000000
      3          8           0       -0.205061    1.255061    0.000000
      4          8           0       -0.205061    2.415061    0.000000
 ---------------------------------------------------------------------

 SCF Done:  E(ROHF) =  -299.229520503     A.U. after   23 cycles
 E2 =    -0.9643974730D+00 EUMP2 =    -0.30019391797573D+03
 CCSD(T)
 CCSD(T)= -0.30020486598D+03

 The electronic state is 4-A".
 Alpha  occ. eigenvalues --  -20.43324 -20.43153 -20.41623 -20.41416  -1.44257
 Alpha  occ. eigenvalues --   -1.43995  -0.87351  -0.86180  -0.54669  -0.54399
 Alpha  occ. eigenvalues --   -0.52633  -0.52256  -0.49658  -0.47580  -0.21529
 Alpha  occ. eigenvalues --   -0.21053  -0.18960  -0.18250
 Alpha virt. eigenvalues --    0.64425   0.69809   0.89097   0.90595   0.90979
 Alpha virt. eigenvalues --    0.94568   0.94851   0.99040   1.00959   1.04404
 Alpha virt. eigenvalues --    1.06696   1.08285   1.11418   1.11770   1.13234

 Mulliken charges and spin densities:
               1          2
     1  O   -0.303487   0.688940
     2  O   -0.198147   0.809711
     3  O   -0.191593   0.811677
     4  O   -0.306774   0.689672
 Sum of Mulliken charges =  -1.00000   3.00000

 Dipole moment (field-independent basis, Debye):
    X=             -0.1949    Y=             -0.0619    Z=             -0.0000  Tot=              0.2045
 Quadrupole moment (field-independent basis, Debye-Ang):
   XX=            -22.6620   YY=            -43.1053   ZZ=            -22.4868
   XY=              3.3518   XZ=             -0.0000   YZ=             -0.0000

 9\CCSD=-300.166988\CCSD(T)=-300.204866\RMSD=3.324e-09\PG=CS [SG(O4)]\\
 Normal termination of Gaussian 16 at Sat Feb 17 23:34:19 2024.
