 Gaussian 16, Revision A.03,
 Gaussian 16:  ES64L-G16RevA.03 25-Dec-2016

 -----------------------------------------------
 #p ROCCSD(T,MaxCyc=200)/cc-pVTZ SCF(MaxCyc=200)
 -----------------------------------------------

 ---------
 O2_O2_144
 ---------
 Symbolic Z-matrix:
 Charge = -1 Multiplicity = 4

                         Standard orientation:
 ---------------------------------------------------------------------
 Center     Atomic      Atomic             Coordinates (Angstroms)
 Number     Number       Type             X           Y           Z
 ---------------------------------------------------------------------
      1          8           0        0.000000    0.000000    2.620000
      2          8           0        0.000000    0.000000    1.460000
      3          8           0        0.000000    0.000000   -1.460000
      4          8           0        0.000000    0.000000   -2.620000
 ---------------------------------------------------------------------

 SCF Done:  E(ROHF) =  -299.228514656     A.U. after   13 cycles
 E2 =    -0.9646067145D+00 EUMP2 =    -0.30019312137078D+03
 CCSD(T)
 CCSD(T)= -0.30020320726D+03

 Unable to determine electronic state:  partially filled degenerate orbitals.
 Alpha  occ. eigenvalues --  -20.43658 -20.43657 -20.42190 -20.42189  -1.44687
 Alpha  occ. eigenvalues --   -1.44639  -0.87612  -0.86917  -0.55107  -0.54951
 Alpha  occ. eigenvalues --   -0.53061  -0.52893  -0.49946  -0.48391  -0.22118
 Alpha  occ. eigenvalues --   -0.21609  -0.19353  -0.18937
 Alpha virt. eigenvalues --    0.62119   0.71021   0.89019   0.89787   0.91014
 Alpha virt. eigenvalues --    0.92660   0.93944   0.99390   1.00591   1.02273
 Alpha virt. eigenvalues --    1.06508   1.08557   1.09905   1.11502   1.12500

 Mulliken charges and spin densities:
               1          2
     1  O   -0.299999   0.695550
     2  O   -0.200001   0.804450
     3  O   -0.200001   0.804450
     4  O   -0.299999   0.695550
 Sum of Mulliken charges =  -1.00000   3.00000

 Dipole moment (field-independent basis, Debye):
    X=             -0.0000    Y=             -0.0000    Z=             -0.0000  Tot=              0.0000
 Quadrupole moment (field-independent basis, Debye-Ang):
   XX=            -21.3163   YY=            -22.4724   ZZ=            -48.2461
   XY=              0.0000   XZ=              0.0000   YZ=              0.0000

 Normal termination of Gaussian 16 at Sat Feb 17 23:50:56 2024.
