 Gaussian 16, Revision A.03,
 Gaussian 16:  ES64L-G16RevA.03 25-Dec-2016

 -----------------------------------------------
 #p ROCCSD(T,MaxCyc=200)/cc-pVTZ SCF(MaxCyc=200)
 -----------------------------------------------

 --------
 O2_O2_10
 --------
 Symbolic Z-matrix:
 Charge = -1 Multiplicity = 4

                         Standard orientation:
 ---------------------------------------------------------------------
 Center     Atomic      Atomic             Coordinates (Angstroms)
 Number     Number       Type             X           Y           Z
 ---------------------------------------------------------------------
      1          8           0        0.615183   -1.465183    0.000000
      2          8           0       -0.205061   -0.644939    0.000000
      3          8           0       -0.205061    0.475062    0.000000
      4          8           0       -0.205061    1.635060    0.000000
 ---------------------------------------------------------------------

 SCF Done:  E(ROHF) =  -298.762495648     A.U. after   19 cycles
 E2 =    -0.9539018147D+00 EUMP2 =    -0.29971639746302D+03
 CCSD(T)
 CCSD(T)= -0.29974129034D+03

 The electronic state is 4-A".
 Alpha  occ. eigenvalues --  -20.46893 -20.45276 -20.35150 -20.27202  -1.62215
 Alpha  occ. eigenvalues --   -1.40199  -1.16910  -0.72835  -0.67602  -0.65374
 Alpha  occ. eigenvalues --   -0.57230  -0.45410  -0.44058  -0.23251  -0.22518
 Alpha  occ. eigenvalues --   -0.16171  -0.07651   0.05501
 Alpha virt. eigenvalues --    0.70774   0.76979   0.89102   0.90065   0.90120
 Alpha virt. eigenvalues --    0.93816   1.00822   1.02476   1.06181   1.09930
 Alpha virt. eigenvalues --    1.10886   1.17303   1.17360   1.23816   1.38904

 Mulliken charges and spin densities:
               1          2
     1  O   -0.684287   0.249392
     2  O    0.129697   0.700526
     3  O   -0.111615   1.037950
     4  O   -0.333795   1.012131
 Sum of Mulliken charges =  -1.00000   3.00000

 Dipole moment (field-independent basis, Debye):
    X=             -1.2966    Y=              0.8703    Z=              0.0000  Tot=              1.5616
 Quadrupole moment (field-independent basis, Debye-Ang):
   XX=            -23.5580   YY=            -37.7893   ZZ=            -21.7070
   XY=              4.0443   XZ=             -0.0000   YZ=             -0.0000

 79\CCSD=-299.7022342\CCSD(T)=-299.7412903\RMSD=8.919e-09\PG=CS [SG(O4)
 Normal termination of Gaussian 16 at Sat Feb 17 20:28:33 2024.
