 Gaussian 16, Revision A.03,
 Gaussian 16:  ES64L-G16RevA.03 25-Dec-2016

 -----------------------------------------------
 #p ROCCSD(T,MaxCyc=200)/cc-pVTZ SCF(MaxCyc=200)
 -----------------------------------------------

 --------
 O2_O2_77
 --------
 Symbolic Z-matrix:
 Charge = -1 Multiplicity = 4

                         Standard orientation:
 ---------------------------------------------------------------------
 Center     Atomic      Atomic             Coordinates (Angstroms)
 Number     Number       Type             X           Y           Z
 ---------------------------------------------------------------------
      1          8           0       -0.870000   -1.290000    0.000000
      2          8           0        0.290000   -1.290000    0.000000
      3          8           0        0.290000    0.710000    0.000000
      4          8           0        0.290000    1.870000    0.000000
 ---------------------------------------------------------------------

 SCF Done:  E(ROHF) =  -299.214367102     A.U. after   24 cycles
 E2 =    -0.9635397708D+00 EUMP2 =    -0.30017790687262D+03
 CCSD(T)
 CCSD(T)= -0.30019203814D+03

 The electronic state is 4-A'.
 Alpha  occ. eigenvalues --  -20.40680 -20.40170 -20.39883 -20.38193  -1.42772
 Alpha  occ. eigenvalues --   -1.41124  -0.86793  -0.83335  -0.53773  -0.53381
 Alpha  occ. eigenvalues --   -0.51147  -0.50202  -0.47038  -0.41625  -0.19966
 Alpha  occ. eigenvalues --   -0.18171  -0.17802  -0.14392
 Alpha virt. eigenvalues --    0.66093   0.71763   0.90104   0.94484   0.94995
 Alpha virt. eigenvalues --    0.96533   0.97217   1.03306   1.04209   1.04428
 Alpha virt. eigenvalues --    1.06362   1.11268   1.14768   1.18782   1.24550

 Mulliken charges and spin densities:
               1          2
     1  O   -0.283231   0.717351
     2  O   -0.215830   0.784175
     3  O   -0.145936   0.833637
     4  O   -0.355003   0.664837
 Sum of Mulliken charges =  -1.00000   3.00000

 Dipole moment (field-independent basis, Debye):
    X=              0.2160    Y=             -0.4190    Z=              0.0000  Tot=              0.4714
 Quadrupole moment (field-independent basis, Debye-Ang):
   XX=            -24.5097   YY=            -34.5202   ZZ=            -21.3251
   XY=             -2.1716   XZ=              0.0000   YZ=              0.0000

 \CCSD(T)=-300.1920381\RMSD=3.733e-09\PG=CS [SG(O4)]\\@
 Normal termination of Gaussian 16 at Sat Feb 17 22:20:04 2024.
