 Gaussian 16, Revision A.03,
 Gaussian 16:  ES64L-G16RevA.03 25-Dec-2016

 -----------------------------------------------
 #p ROCCSD(T,MaxCyc=200)/cc-pVTZ SCF(MaxCyc=200)
 -----------------------------------------------

 --------
 O2_O2_67
 --------
 Symbolic Z-matrix:
 Charge = -1 Multiplicity = 4

                         Standard orientation:
 ---------------------------------------------------------------------
 Center     Atomic      Atomic             Coordinates (Angstroms)
 Number     Number       Type             X           Y           Z
 ---------------------------------------------------------------------
      1          8           0        0.615183   -1.845183   -0.000000
      2          8           0       -0.205061   -1.024939   -0.000000
      3          8           0       -0.205061    0.855061    0.000000
      4          8           0       -0.205061    2.015061    0.000000
 ---------------------------------------------------------------------

 SCF Done:  E(ROHF) =  -299.203400743     A.U. after   26 cycles
 E2 =    -0.9645985001D+00 EUMP2 =    -0.30016799924334D+03
 CCSD(T)
 CCSD(T)= -0.30018299066D+03

 The electronic state is 4-A".
 Alpha  occ. eigenvalues --  -20.42862 -20.40875 -20.40361 -20.36716  -1.44091
 Alpha  occ. eigenvalues --   -1.41179  -0.90264  -0.81572  -0.54945  -0.53845
 Alpha  occ. eigenvalues --   -0.52696  -0.49217  -0.49189  -0.40749  -0.21111
 Alpha  occ. eigenvalues --   -0.19186  -0.17127  -0.14497
 Alpha virt. eigenvalues --    0.69057   0.71816   0.89701   0.91245   0.96408
 Alpha virt. eigenvalues --    0.97334   0.98992   1.02090   1.04090   1.04402
 Alpha virt. eigenvalues --    1.08557   1.12301   1.18248   1.19910   1.23222

 Mulliken charges and spin densities:
               1          2
     1  O   -0.384016   0.596586
     2  O   -0.155135   0.862299
     3  O   -0.129173   0.848400
     4  O   -0.331676   0.692715
 Sum of Mulliken charges =  -1.00000   3.00000

 Dipole moment (field-independent basis, Debye):
    X=             -0.4791    Y=              0.5381    Z=              0.0000  Tot=              0.7205
 Quadrupole moment (field-independent basis, Debye-Ang):
   XX=            -22.8982   YY=            -37.8908   ZZ=            -22.5038
   XY=              3.3625   XZ=              0.0000   YZ=             -0.0000

 0371\CCSD=-300.1445002\CCSD(T)=-300.1829907\RMSD=3.623e-09\PG=CS [SG(O
 Normal termination of Gaussian 16 at Sat Feb 17 22:04:18 2024.
