 Gaussian 16, Revision A.03,
 Gaussian 16:  ES64L-G16RevA.03 25-Dec-2016

 -----------------------------------------------
 #p ROCCSD(T,MaxCyc=200)/cc-pVTZ SCF(MaxCyc=200)
 -----------------------------------------------

 --------
 O2_O2_98
 --------
 Symbolic Z-matrix:
 Charge = -1 Multiplicity = 4

                         Standard orientation:
 ---------------------------------------------------------------------
 Center     Atomic      Atomic             Coordinates (Angstroms)
 Number     Number       Type             X           Y           Z
 ---------------------------------------------------------------------
      1          8           0       -0.870000   -1.430000    0.000000
      2          8           0        0.290000   -1.430000    0.000000
      3          8           0        0.290000    0.850000    0.000000
      4          8           0        0.290000    2.010000    0.000000
 ---------------------------------------------------------------------

 SCF Done:  E(ROHF) =  -299.231258591     A.U. after   23 cycles
 E2 =    -0.9634009265D+00 EUMP2 =    -0.30019465951712D+03
 CCSD(T)
 CCSD(T)= -0.30020772470D+03

 The electronic state is 4-A'.
 Alpha  occ. eigenvalues --  -20.41740 -20.41145 -20.41000 -20.39359  -1.43013
 Alpha  occ. eigenvalues --   -1.42269  -0.86281  -0.84648  -0.53598  -0.52757
 Alpha  occ. eigenvalues --   -0.52431  -0.50783  -0.47907  -0.44698  -0.20373
 Alpha  occ. eigenvalues --   -0.19364  -0.18157  -0.15868
 Alpha virt. eigenvalues --    0.65494   0.70735   0.89186   0.93003   0.95793
 Alpha virt. eigenvalues --    0.96102   0.97017   0.99605   1.01639   1.03713
 Alpha virt. eigenvalues --    1.05974   1.09954   1.12766   1.14191   1.22175

 Mulliken charges and spin densities:
               1          2
     1  O   -0.274067   0.725222
     2  O   -0.222759   0.779575
     3  O   -0.165111   0.827402
     4  O   -0.338063   0.667801
 Sum of Mulliken charges =  -1.00000   3.00000

 Dipole moment (field-independent basis, Debye):
    X=              0.1422    Y=             -0.4072    Z=              0.0000  Tot=              0.4313
 Quadrupole moment (field-independent basis, Debye-Ang):
   XX=            -24.5121   YY=            -35.9681   ZZ=            -21.3338
   XY=             -2.3172   XZ=              0.0000   YZ=              0.0000

 71\CCSD(T)=-300.2077247\RMSD=4.817e-09\PG=CS [SG(O4)]\\@
 Normal termination of Gaussian 16 at Sat Feb 17 22:52:03 2024.
