 Gaussian 16, Revision A.03,
 Gaussian 16:  ES64L-G16RevA.03 25-Dec-2016

 -----------------------------------------------
 #p ROCCSD(T,MaxCyc=200)/cc-pVTZ SCF(MaxCyc=200)
 -----------------------------------------------

 ---------
 O2_O2_156
 ---------
 Symbolic Z-matrix:
 Charge = -1 Multiplicity = 4

                         Standard orientation:
 ---------------------------------------------------------------------
 Center     Atomic      Atomic             Coordinates (Angstroms)
 Number     Number       Type             X           Y           Z
 ---------------------------------------------------------------------
      1          8           0        0.000000    0.000000    2.700000
      2          8           0        0.000000    0.000000    1.540000
      3          8           0        0.000000    0.000000   -1.540000
      4          8           0        0.000000    0.000000   -2.700000
 ---------------------------------------------------------------------

 SCF Done:  E(ROHF) =  -299.227515748     A.U. after   13 cycles
 E2 =    -0.9646911569D+00 EUMP2 =    -0.30019220690471D+03
 CCSD(T)
 CCSD(T)= -0.30020189791D+03

 Unable to determine electronic state:  partially filled degenerate orbitals.
 Alpha  occ. eigenvalues --  -20.43819 -20.43818 -20.42484 -20.42484  -1.44898
 Alpha  occ. eigenvalues --   -1.44868  -0.87737  -0.87268  -0.55307  -0.55202
 Alpha  occ. eigenvalues --   -0.53263  -0.53148  -0.49981  -0.48862  -0.22281
 Alpha  occ. eigenvalues --   -0.21915  -0.19524  -0.19260
 Alpha virt. eigenvalues --    0.60591   0.70830   0.88400   0.90040   0.91276
 Alpha virt. eigenvalues --    0.92275   0.93551   0.99698   1.00886   1.01736
 Alpha virt. eigenvalues --    1.05511   1.07076   1.08416   1.11451   1.12315

 Mulliken charges and spin densities:
               1          2
     1  O   -0.295339   0.699347
     2  O   -0.204661   0.800653
     3  O   -0.204661   0.800653
     4  O   -0.295339   0.699347
 Sum of Mulliken charges =  -1.00000   3.00000

 Dipole moment (field-independent basis, Debye):
    X=             -0.0000    Y=             -0.0000    Z=              0.0000  Tot=              0.0000
 Quadrupole moment (field-independent basis, Debye-Ang):
   XX=            -22.4608   YY=            -21.3136   ZZ=            -49.7604
   XY=              0.0000   XZ=              0.0000   YZ=              0.0000

 Normal termination of Gaussian 16 at Sun Feb 18 00:05:49 2024.
