 Gaussian 16, Revision A.03,
 Gaussian 16:  ES64L-G16RevA.03 25-Dec-2016

 -----------------------------------------------
 #p ROCCSD(T,MaxCyc=200)/cc-pVTZ SCF(MaxCyc=200)
 -----------------------------------------------

 ---------
 O2_O2_160
 ---------
 Symbolic Z-matrix:
 Charge = -1 Multiplicity = 4

                         Standard orientation:
 ---------------------------------------------------------------------
 Center     Atomic      Atomic             Coordinates (Angstroms)
 Number     Number       Type             X           Y           Z
 ---------------------------------------------------------------------
      1          8           0        0.615183   -2.465183   -0.000000
      2          8           0       -0.205061   -1.644939    0.000000
      3          8           0       -0.205061    1.475061    0.000000
      4          8           0       -0.205061    2.635061    0.000000
 ---------------------------------------------------------------------

 SCF Done:  E(ROHF) =  -299.227187215     A.U. after   17 cycles
 E2 =    -0.9646508774D+00 EUMP2 =    -0.30019183809193D+03
 CCSD(T)
 CCSD(T)= -0.30020158891D+03

 The electronic state is 4-A".
 Alpha  occ. eigenvalues --  -20.43727 -20.43703 -20.42469 -20.42412  -1.44814
 Alpha  occ. eigenvalues --   -1.44769  -0.87653  -0.87252  -0.55211  -0.55123
 Alpha  occ. eigenvalues --   -0.53183  -0.53072  -0.49820  -0.48961  -0.22097
 Alpha  occ. eigenvalues --   -0.21923  -0.19441  -0.19233
 Alpha virt. eigenvalues --    0.61306   0.68678   0.87659   0.90511   0.91393
 Alpha virt. eigenvalues --    0.93240   0.93653   0.98131   1.01295   1.02724
 Alpha virt. eigenvalues --    1.04431   1.06125   1.07860   1.10964   1.12430

 Mulliken charges and spin densities:
               1          2
     1  O   -0.290278   0.704470
     2  O   -0.208913   0.795692
     3  O   -0.205794   0.800508
     4  O   -0.295015   0.699330
 Sum of Mulliken charges =  -1.00000   3.00000

 Dipole moment (field-independent basis, Debye):
    X=             -0.1476    Y=             -0.1027    Z=              0.0000  Tot=              0.1798
 Quadrupole moment (field-independent basis, Debye-Ang):
   XX=            -22.6209   YY=            -46.9674   ZZ=            -22.4554
   XY=              3.4874   XZ=             -0.0000   YZ=             -0.0000

 69166\CCSD=-300.1638283\CCSD(T)=-300.2015889\RMSD=9.522e-09\PG=CS [SG(
 Normal termination of Gaussian 16 at Sun Feb 18 00:10:44 2024.
