 Gaussian 16, Revision A.03,
 Gaussian 16:  ES64L-G16RevA.03 25-Dec-2016

 -----------------------------------------------
 #p ROCCSD(T,MaxCyc=200)/cc-pVTZ SCF(MaxCyc=200)
 -----------------------------------------------

 --------
 O2_O2_24
 --------
 Symbolic Z-matrix:
 Charge = -1 Multiplicity = 4

                         Standard orientation:
 ---------------------------------------------------------------------
 Center     Atomic      Atomic             Coordinates (Angstroms)
 Number     Number       Type             X           Y           Z
 ---------------------------------------------------------------------
      1          8           0        0.000000    0.000000    1.820000
      2          8           0        0.000000    0.000000    0.660000
      3          8           0        0.000000    0.000000   -0.660000
      4          8           0        0.000000    0.000000   -1.820000
 ---------------------------------------------------------------------

 SCF Done:  E(ROHF) =  -298.881880844     A.U. after   12 cycles
 E2 =    -0.1002803861D+01 EUMP2 =    -0.29988468470521D+03
 CCSD(T)
 CCSD(T)= -0.29989227559D+03

 The electronic state is 4-SGU.
 Alpha  occ. eigenvalues --  -20.49213 -20.49212 -20.32654 -20.32653  -1.52035
 Alpha  occ. eigenvalues --   -1.41578  -1.11960  -0.73824  -0.61784  -0.61784
 Alpha  occ. eigenvalues --   -0.56461  -0.49197  -0.49197  -0.22787  -0.21593
 Alpha  occ. eigenvalues --   -0.21593  -0.12063  -0.12063
 Alpha virt. eigenvalues --    0.70117   0.72996   0.89906   0.90183   0.90183
 Alpha virt. eigenvalues --    0.97654   0.99642   0.99642   1.08158   1.08158
 Alpha virt. eigenvalues --    1.11591   1.22809   1.22843   1.22843   1.33326

 Mulliken charges and spin densities:
               1          2
     1  O   -0.543177   0.403783
     2  O    0.043177   1.096217
     3  O    0.043177   1.096217
     4  O   -0.543177   0.403783
 Sum of Mulliken charges =  -1.00000   3.00000

 Dipole moment (field-independent basis, Debye):
    X=             -0.0000    Y=             -0.0000    Z=             -0.0000  Tot=              0.0000
 Quadrupole moment (field-independent basis, Debye-Ang):
   XX=            -21.9706   YY=            -21.9706   ZZ=            -42.1667
   XY=              0.0000   XZ=              0.0000   YZ=              0.0000

 882\CCSD(T)=-299.8922756\RMSD=2.993e-09\PG=D*H [C*(O1O1.O1O1)]\\@
 Normal termination of Gaussian 16 at Sat Feb 17 20:51:30 2024.
