 Gaussian 16, Revision A.03,
 Gaussian 16:  ES64L-G16RevA.03 25-Dec-2016

 -----------------------------------------------
 #p ROCCSD(T,MaxCyc=200)/cc-pVTZ SCF(MaxCyc=200)
 -----------------------------------------------

 ---------
 O2_O2_166
 ---------
 Symbolic Z-matrix:
 Charge = -1 Multiplicity = 4

                         Standard orientation:
 ---------------------------------------------------------------------
 Center     Atomic      Atomic             Coordinates (Angstroms)
 Number     Number       Type             X           Y           Z
 ---------------------------------------------------------------------
      1          8           0        0.615183   -2.505183    0.000000
      2          8           0       -0.205061   -1.684939    0.000000
      3          8           0       -0.205061    1.515061   -0.000000
      4          8           0       -0.205061    2.675061   -0.000000
 ---------------------------------------------------------------------

 SCF Done:  E(ROHF) =  -299.226813091     A.U. after   19 cycles
 E2 =    -0.9646879315D+00 EUMP2 =    -0.30019150102291D+03
 CCSD(T)
 CCSD(T)= -0.30020106945D+03

 The electronic state is 4-A".
 Alpha  occ. eigenvalues --  -20.43800 -20.43788 -20.42622 -20.42543  -1.44914
 Alpha  occ. eigenvalues --   -1.44885  -0.87733  -0.87401  -0.55310  -0.55238
 Alpha  occ. eigenvalues --   -0.53284  -0.53192  -0.49876  -0.49146  -0.22197
 Alpha  occ. eigenvalues --   -0.22051  -0.19535  -0.19375
 Alpha virt. eigenvalues --    0.60872   0.68497   0.87556   0.90592   0.91494
 Alpha virt. eigenvalues --    0.93034   0.93453   0.98016   1.01431   1.02505
 Alpha virt. eigenvalues --    1.04061   1.05790   1.07272   1.10954   1.12330

 Mulliken charges and spin densities:
               1          2
     1  O   -0.288545   0.706554
     2  O   -0.210460   0.793720
     3  O   -0.207445   0.798772
     4  O   -0.293549   0.700954
 Sum of Mulliken charges =  -1.00000   3.00000

 Dipole moment (field-independent basis, Debye):
    X=             -0.1412    Y=             -0.1050    Z=             -0.0000  Tot=              0.1760
 Quadrupole moment (field-independent basis, Debye-Ang):
   XX=            -22.6157   YY=            -47.7276   ZZ=            -22.4508
   XY=              3.5152   XZ=             -0.0000   YZ=              0.0000

 49\CCSD=-300.1633317\CCSD(T)=-300.2010695\RMSD=7.209e-09\PG=CS [SG(O4)
 Normal termination of Gaussian 16 at Sun Feb 18 00:16:57 2024.
