 Gaussian 16, Revision A.03,
 Gaussian 16:  ES64L-G16RevA.03 25-Dec-2016

 -----------------------------------------------
 #p ROCCSD(T,MaxCyc=200)/cc-pVTZ SCF(MaxCyc=200)
 -----------------------------------------------

 --------
 O2_O2_47
 --------
 Symbolic Z-matrix:
 Charge = -1 Multiplicity = 4

                         Standard orientation:
 ---------------------------------------------------------------------
 Center     Atomic      Atomic             Coordinates (Angstroms)
 Number     Number       Type             X           Y           Z
 ---------------------------------------------------------------------
      1          8           0       -0.870000   -1.090000    0.000000
      2          8           0        0.290000   -1.090000    0.000000
      3          8           0        0.290000    0.510000    0.000000
      4          8           0        0.290000    1.670000    0.000000
 ---------------------------------------------------------------------

 SCF Done:  E(ROHF) =  -299.120655758     A.U. after   24 cycles
 E2 =    -0.9204289964D+00 EUMP2 =    -0.30004108475435D+03
 CCSD(T)
 CCSD(T)= -0.30008317849D+03

 The electronic state is 4-A".
 Alpha  occ. eigenvalues --  -20.50929 -20.42496 -20.27643 -20.27496  -1.50945
 Alpha  occ. eigenvalues --   -1.31771  -0.94702  -0.80304  -0.59629  -0.58284
 Alpha  occ. eigenvalues --   -0.53489  -0.43517  -0.39458  -0.32749  -0.25527
 Alpha  occ. eigenvalues --   -0.21921  -0.08904  -0.05743
 Alpha virt. eigenvalues --    0.62609   0.75542   0.85671   0.90952   0.92772
 Alpha virt. eigenvalues --    0.98736   1.00312   1.01516   1.04421   1.09090
 Alpha virt. eigenvalues --    1.14377   1.17201   1.18789   1.26139   1.27124

 Mulliken charges and spin densities:
               1          2
     1  O   -0.229706   0.714838
     2  O    0.095093   1.162365
     3  O   -0.377441   0.568093
     4  O   -0.487946   0.554704
 Sum of Mulliken charges =  -1.00000   3.00000

 Dipole moment (field-independent basis, Debye):
    X=             -0.0762    Y=             -3.6190    Z=              0.0000  Tot=              3.6198
 Quadrupole moment (field-independent basis, Debye-Ang):
   XX=            -23.4568   YY=            -32.7806   ZZ=            -22.1740
   XY=             -2.8313   XZ=              0.0000   YZ=              0.0000

 5\CCSD(T)=-300.0831785\RMSD=4.365e-09\PG=CS [SG(O4)]\\@
 Normal termination of Gaussian 16 at Sat Feb 17 21:31:09 2024.
