 Gaussian 16, Revision A.03,
 Gaussian 16:  ES64L-G16RevA.03 25-Dec-2016

 -----------------------------------------------
 #p ROCCSD(T,MaxCyc=200)/cc-pVTZ SCF(MaxCyc=200)
 -----------------------------------------------

 ---------
 O2_O2_154
 ---------
 Symbolic Z-matrix:
 Charge = -1 Multiplicity = 4

                         Standard orientation:
 ---------------------------------------------------------------------
 Center     Atomic      Atomic             Coordinates (Angstroms)
 Number     Number       Type             X           Y           Z
 ---------------------------------------------------------------------
      1          8           0        0.615183   -2.425183    0.000000
      2          8           0       -0.205061   -1.604939    0.000000
      3          8           0       -0.205061    1.435062   -0.000000
      4          8           0       -0.205061    2.595060   -0.000000
 ---------------------------------------------------------------------

 SCF Done:  E(ROHF) =  -299.227590624     A.U. after   21 cycles
 E2 =    -0.9646117207D+00 EUMP2 =    -0.30019220234474D+03
 CCSD(T)
 CCSD(T)= -0.30020214510D+03

 The electronic state is 4-A".
 Alpha  occ. eigenvalues --  -20.43654 -20.43614 -20.42307 -20.42278  -1.44713
 Alpha  occ. eigenvalues --   -1.44646  -0.87577  -0.87092  -0.55111  -0.55002
 Alpha  occ. eigenvalues --   -0.53081  -0.52944  -0.49770  -0.48761  -0.21995
 Alpha  occ. eigenvalues --   -0.21787  -0.19349  -0.19082
 Alpha virt. eigenvalues --    0.61807   0.68861   0.87854   0.90421   0.91273
 Alpha virt. eigenvalues --    0.93457   0.93859   0.98248   1.01172   1.02972
 Alpha virt. eigenvalues --    1.04831   1.06476   1.08493   1.10973   1.12537

 Mulliken charges and spin densities:
               1          2
     1  O   -0.292181   0.702203
     2  O   -0.207264   0.797816
     3  O   -0.203917   0.802326
     4  O   -0.296638   0.697655
 Sum of Mulliken charges =  -1.00000   3.00000

 Dipole moment (field-independent basis, Debye):
    X=             -0.1545    Y=             -0.0992    Z=             -0.0000  Tot=              0.1836
 Quadrupole moment (field-independent basis, Debye-Ang):
   XX=            -22.6267   YY=            -46.2246   ZZ=            -22.4602
   XY=              3.4604   XZ=             -0.0000   YZ=              0.0000

 74767\CCSD=-300.1643622\CCSD(T)=-300.2021451\RMSD=4.040e-09\PG=CS [SG(
 Normal termination of Gaussian 16 at Sun Feb 18 00:04:23 2024.
