 Gaussian 16, Revision A.03,
 Gaussian 16:  ES64L-G16RevA.03 25-Dec-2016

 -----------------------------------------------
 #p ROCCSD(T,MaxCyc=200)/cc-pVTZ SCF(MaxCyc=200)
 -----------------------------------------------

 ---------
 O2_O2_249
 ---------
 Symbolic Z-matrix:
 Charge = -1 Multiplicity = 4

                         Standard orientation:
 ---------------------------------------------------------------------
 Center     Atomic      Atomic             Coordinates (Angstroms)
 Number     Number       Type             X           Y           Z
 ---------------------------------------------------------------------
      1          8           0        0.000000    0.000000    3.320000
      2          8           0        0.000000    0.000000    2.160000
      3          8           0        0.000000    0.000000   -2.160000
      4          8           0        0.000000    0.000000   -3.320000
 ---------------------------------------------------------------------

 SCF Done:  E(ROHF) =  -299.223807950     A.U. after   13 cycles
 E2 =    -0.9653924515D+00 EUMP2 =    -0.30018920040163D+03
 CCSD(T)
 CCSD(T)= -0.30019694887D+03

 Unable to determine electronic state:  partially filled degenerate orbitals.
 Alpha  occ. eigenvalues --  -20.44854 -20.44854 -20.44131 -20.44131  -1.46212
 Alpha  occ. eigenvalues --   -1.46212  -0.88933  -0.88915  -0.56600  -0.56596
 Alpha  occ. eigenvalues --   -0.54563  -0.54560  -0.50928  -0.50852  -0.23490
 Alpha  occ. eigenvalues --   -0.23470  -0.20896  -0.20743
 Alpha virt. eigenvalues --    0.60594   0.65754   0.90061   0.90194   0.91316
 Alpha virt. eigenvalues --    0.91444   0.91684   0.95399   1.01159   1.01660
 Alpha virt. eigenvalues --    1.02462   1.02834   1.02920   1.05777   1.11104

 Mulliken charges and spin densities:
               1          2
     1  O   -0.278827   0.718976
     2  O   -0.221173   0.781024
     3  O   -0.221173   0.781024
     4  O   -0.278827   0.718976
 Sum of Mulliken charges =  -1.00000   3.00000

 Dipole moment (field-independent basis, Debye):
    X=             -0.0000    Y=             -0.0000    Z=              0.0000  Tot=              0.0000
 Quadrupole moment (field-independent basis, Debye-Ang):
   XX=            -21.3014   YY=            -22.4150   ZZ=            -63.7127
   XY=              0.0000   XZ=              0.0000   YZ=              0.0000

 08\PMP2-0=-300.1892004\MP4SDQ=-300.1622147\CCSD=-300.159376\CCSD(T)=-3
 Normal termination of Gaussian 16 at Sun Feb 18 01:17:14 2024.
