 Gaussian 16, Revision A.03,
 Gaussian 16:  ES64L-G16RevA.03 25-Dec-2016

 -----------------------------------------------
 #p ROCCSD(T,MaxCyc=200)/cc-pVTZ SCF(MaxCyc=200)
 -----------------------------------------------

 --------
 O2_O2_73
 --------
 Symbolic Z-matrix:
 Charge = -1 Multiplicity = 4

                         Standard orientation:
 ---------------------------------------------------------------------
 Center     Atomic      Atomic             Coordinates (Angstroms)
 Number     Number       Type             X           Y           Z
 ---------------------------------------------------------------------
      1          8           0        0.615183   -1.885183    0.000000
      2          8           0       -0.205061   -1.064939   -0.000000
      3          8           0       -0.205061    0.895061   -0.000000
      4          8           0       -0.205061    2.055061   -0.000000
 ---------------------------------------------------------------------

 SCF Done:  E(ROHF) =  -299.212865486     A.U. after   25 cycles
 E2 =    -0.9643958007D+00 EUMP2 =    -0.30017726128637D+03
 CCSD(T)
 CCSD(T)= -0.30019154797D+03

 The electronic state is 4-A".
 Alpha  occ. eigenvalues --  -20.42767 -20.41316 -20.40346 -20.37620  -1.43877
 Alpha  occ. eigenvalues --   -1.41667  -0.89392  -0.82337  -0.54633  -0.53642
 Alpha  occ. eigenvalues --   -0.52432  -0.49738  -0.49517  -0.41982  -0.20978
 Alpha  occ. eigenvalues --   -0.18942  -0.17895  -0.15134
 Alpha virt. eigenvalues --    0.68634   0.71621   0.89486   0.90994   0.96102
 Alpha virt. eigenvalues --    0.97059   0.98687   1.02189   1.03717   1.04254
 Alpha virt. eigenvalues --    1.08193   1.12349   1.17828   1.19013   1.21821

 Mulliken charges and spin densities:
               1          2
     1  O   -0.366534   0.616337
     2  O   -0.161867   0.855732
     3  O   -0.138738   0.840560
     4  O   -0.332862   0.687371
 Sum of Mulliken charges =  -1.00000   3.00000

 Dipole moment (field-independent basis, Debye):
    X=             -0.4178    Y=              0.3752    Z=              0.0000  Tot=              0.5615
 Quadrupole moment (field-independent basis, Debye-Ang):
   XX=            -22.8503   YY=            -38.2670   ZZ=            -22.5155
   XY=              3.3234   XZ=             -0.0000   YZ=              0.0000

 65\CCSD=-300.1532111\CCSD(T)=-300.191548\RMSD=6.750e-10\PG=CS [SG(O4)]
 Normal termination of Gaussian 16 at Sat Feb 17 22:13:50 2024.
