 Gaussian 16, Revision A.03,
 Gaussian 16:  ES64L-G16RevA.03 25-Dec-2016

 -----------------------------------------------
 #p ROCCSD(T,MaxCyc=200)/cc-pVTZ SCF(MaxCyc=200)
 -----------------------------------------------

 ---------
 O2_O2_105
 ---------
 Symbolic Z-matrix:
 Charge = -1 Multiplicity = 4

                         Standard orientation:
 ---------------------------------------------------------------------
 Center     Atomic      Atomic             Coordinates (Angstroms)
 Number     Number       Type             X           Y           Z
 ---------------------------------------------------------------------
      1          8           0        0.000000    0.000000    2.360000
      2          8           0        0.000000    0.000000    1.200000
      3          8           0        0.000000    0.000000   -1.200000
      4          8           0        0.000000    0.000000   -2.360000
 ---------------------------------------------------------------------

 SCF Done:  E(ROHF) =  -299.230913431     A.U. after   13 cycles
 E2 =    -0.9641769714D+00 EUMP2 =    -0.30019509040198D+03
 CCSD(T)
 CCSD(T)= -0.30020685385D+03

 Unable to determine electronic state:  an orbital has unidentified symmetry.
 Alpha  occ. eigenvalues --  -20.42971 -20.42970 -20.40982 -20.40982  -1.43924
 Alpha  occ. eigenvalues --   -1.43699  -0.87643  -0.85183  -0.54425  -0.53877
 Alpha  occ. eigenvalues --   -0.52384  -0.51811  -0.50365  -0.45900  -0.21665
 Alpha  occ. eigenvalues --   -0.20225  -0.18877  -0.17485
 Alpha virt. eigenvalues --    0.67162   0.71416   0.89080   0.90275   0.94002
 Alpha virt. eigenvalues --    0.94181   0.95334   0.99319   1.00609   1.04196
 Alpha virt. eigenvalues --    1.11504   1.11818   1.13186   1.14391   1.15737

 Mulliken charges and spin densities:
               1          2
     1  O   -0.323843   0.681190
     2  O   -0.176157   0.818810
     3  O   -0.176157   0.818810
     4  O   -0.323843   0.681190
 Sum of Mulliken charges =  -1.00000   3.00000

 Dipole moment (field-independent basis, Debye):
    X=             -0.0000    Y=             -0.0000    Z=              0.0000  Tot=              0.0000
 Quadrupole moment (field-independent basis, Debye-Ang):
   XX=            -22.5184   YY=            -21.3267   ZZ=            -43.8326
   XY=              0.0000   XZ=              0.0000   YZ=              0.0000

 134\PMP2-0=-300.1950904\MP4SDQ=-300.1724114\CCSD=-300.1689912\CCSD(T)=
 Normal termination of Gaussian 16 at Sat Feb 17 23:03:11 2024.
