 Gaussian 16, Revision A.03,
 Gaussian 16:  ES64L-G16RevA.03 25-Dec-2016

 -----------------------------------------------
 #p ROCCSD(T,MaxCyc=200)/cc-pVTZ SCF(MaxCyc=200)
 -----------------------------------------------

 ---------
 O2_O2_300
 ---------
 Symbolic Z-matrix:
 Charge = -1 Multiplicity = 4

                         Standard orientation:
 ---------------------------------------------------------------------
 Center     Atomic      Atomic             Coordinates (Angstroms)
 Number     Number       Type             X           Y           Z
 ---------------------------------------------------------------------
      1          8           0        0.000000    0.000000    3.660000
      2          8           0        0.000000    0.000000    2.500000
      3          8           0        0.000000    0.000000   -2.500000
      4          8           0        0.000000    0.000000   -3.660000
 ---------------------------------------------------------------------

 SCF Done:  E(ROHF) =  -299.223899904     A.U. after   13 cycles
 E2 =    -0.9659163683D+00 EUMP2 =    -0.30018981627265D+03
 CCSD(T)
 CCSD(T)= -0.30019691617D+03

 Unable to determine electronic state:  partially filled degenerate orbitals.
 Alpha  occ. eigenvalues --  -20.45348 -20.45348 -20.44769 -20.44769  -1.46766
 Alpha  occ. eigenvalues --   -1.46766  -0.89496  -0.89495  -0.57152  -0.57151
 Alpha  occ. eigenvalues --   -0.55114  -0.55113  -0.51477  -0.51464  -0.24045
 Alpha  occ. eigenvalues --   -0.24042  -0.21447  -0.21312
 Alpha virt. eigenvalues --    0.62100   0.63271   0.89588   0.89604   0.90842
 Alpha virt. eigenvalues --    0.90854   0.92670   0.93306   1.00818   1.00877
 Alpha virt. eigenvalues --    1.02051   1.02120   1.03126   1.03702   1.10571

 Mulliken charges and spin densities:
               1          2
     1  O   -0.272969   0.725386
     2  O   -0.227031   0.774614
     3  O   -0.227031   0.774614
     4  O   -0.272969   0.725386
 Sum of Mulliken charges =  -1.00000   3.00000

 Dipole moment (field-independent basis, Debye):
    X=             -0.0000    Y=             -0.0000    Z=              0.0000  Tot=              0.0000
 Quadrupole moment (field-independent basis, Debye-Ang):
   XX=            -22.4148   YY=            -21.2993   ZZ=            -72.9658
   XY=              0.0000   XZ=              0.0000   YZ=              0.0000

 99\PMP2-0=-300.1898163\MP4SDQ=-300.1621239\CCSD=-300.1593617\CCSD(T)=-
 Normal termination of Gaussian 16 at Sun Feb 18 01:44:10 2024.
