 Gaussian 16, Revision A.03,
 Gaussian 16:  ES64L-G16RevA.03 25-Dec-2016

 -----------------------------------------------
 #p ROCCSD(T,MaxCyc=200)/cc-pVTZ SCF(MaxCyc=200)
 -----------------------------------------------

 --------
 O2_O2_23
 --------
 Symbolic Z-matrix:
 Charge = -1 Multiplicity = 4

                         Standard orientation:
 ---------------------------------------------------------------------
 Center     Atomic      Atomic             Coordinates (Angstroms)
 Number     Number       Type             X           Y           Z
 ---------------------------------------------------------------------
      1          8           0       -0.870000   -0.930000    0.000000
      2          8           0        0.290000   -0.930000    0.000000
      3          8           0        0.290000    0.350000    0.000000
      4          8           0        0.290000    1.510000    0.000000
 ---------------------------------------------------------------------

 SCF Done:  E(ROHF) =  -298.884131848     A.U. after   22 cycles
 E2 =    -0.9492542079D+00 EUMP2 =    -0.29983338605591D+03
 CCSD(T)
 CCSD(T)= -0.29986608284D+03

 The electronic state is 4-A".
 Alpha  occ. eigenvalues --  -20.48232 -20.38694 -20.30814 -20.30585  -1.56892
 Alpha  occ. eigenvalues --   -1.36321  -1.02484  -0.80522  -0.61850  -0.59368
 Alpha  occ. eigenvalues --   -0.53722  -0.44983  -0.43498  -0.25203  -0.19109
 Alpha  occ. eigenvalues --   -0.14573  -0.10769  -0.05380
 Alpha virt. eigenvalues --    0.65164   0.72329   0.84375   0.92012   0.94299
 Alpha virt. eigenvalues --    0.97814   1.02218   1.02242   1.05693   1.10906
 Alpha virt. eigenvalues --    1.13832   1.15452   1.15634   1.25673   1.32172

 Mulliken charges and spin densities:
               1          2
     1  O   -0.530770   0.374142
     2  O    0.125443   1.045994
     3  O   -0.096311   0.965014
     4  O   -0.498362   0.614850
 Sum of Mulliken charges =  -1.00000   3.00000

 Dipole moment (field-independent basis, Debye):
    X=              1.3894    Y=             -1.5256    Z=              0.0000  Tot=              2.0634
 Quadrupole moment (field-independent basis, Debye-Ang):
   XX=            -24.5450   YY=            -32.4536   ZZ=            -21.8706
   XY=             -3.4740   XZ=              0.0000   YZ=              0.0000

 41\CCSD(T)=-299.8660828\RMSD=7.069e-09\PG=CS [SG(O4)]\\@
 Normal termination of Gaussian 16 at Sat Feb 17 20:50:11 2024.
