 Gaussian 16, Revision A.03,
 Gaussian 16:  ES64L-G16RevA.03 25-Dec-2016

 -----------------------------------------------
 #p ROCCSD(T,MaxCyc=200)/cc-pVTZ SCF(MaxCyc=200)
 -----------------------------------------------

 ---------
 O2_O2_276
 ---------
 Symbolic Z-matrix:
 Charge = -1 Multiplicity = 4

                         Standard orientation:
 ---------------------------------------------------------------------
 Center     Atomic      Atomic             Coordinates (Angstroms)
 Number     Number       Type             X           Y           Z
 ---------------------------------------------------------------------
      1          8           0        0.000000    0.000000    3.500000
      2          8           0        0.000000    0.000000    2.340000
      3          8           0        0.000000    0.000000   -2.340000
      4          8           0        0.000000    0.000000   -3.500000
 ---------------------------------------------------------------------

 SCF Done:  E(ROHF) =  -299.223879397     A.U. after   13 cycles
 E2 =    -0.9656766380D+00 EUMP2 =    -0.30018955603537D+03
 CCSD(T)
 CCSD(T)= -0.30019693689D+03

 Unable to determine electronic state:  partially filled degenerate orbitals.
 Alpha  occ. eigenvalues --  -20.45131 -20.45131 -20.44489 -20.44489  -1.46522
 Alpha  occ. eigenvalues --   -1.46522  -0.89247  -0.89242  -0.56908  -0.56907
 Alpha  occ. eigenvalues --   -0.54870  -0.54870  -0.51231  -0.51200  -0.23799
 Alpha  occ. eigenvalues --   -0.23792  -0.21202  -0.21063
 Alpha virt. eigenvalues --    0.61664   0.64206   0.89809   0.89854   0.91063
 Alpha virt. eigenvalues --    0.91104   0.92466   0.94033   1.01009   1.01180
 Alpha virt. eigenvalues --    1.02312   1.02354   1.03076   1.04382   1.10809

 Mulliken charges and spin densities:
               1          2
     1  O   -0.275508   0.722637
     2  O   -0.224492   0.777363
     3  O   -0.224492   0.777363
     4  O   -0.275508   0.722637
 Sum of Mulliken charges =  -1.00000   3.00000

 Dipole moment (field-independent basis, Debye):
    X=             -0.0000    Y=              0.0000    Z=             -0.0000  Tot=              0.0000
 Quadrupole moment (field-independent basis, Debye-Ang):
   XX=            -21.3002   YY=            -22.4152   ZZ=            -68.4657
   XY=              0.0000   XZ=              0.0000   YZ=              0.0000

 794\PMP2-0=-300.189556\MP4SDQ=-300.1621738\CCSD=-300.1593782\CCSD(T)=-
 Normal termination of Gaussian 16 at Sun Feb 18 01:31:17 2024.
