 Gaussian 16, Revision A.03,
 Gaussian 16:  ES64L-G16RevA.03 25-Dec-2016

 -----------------------------------------------
 #p ROCCSD(T,MaxCyc=200)/cc-pVTZ SCF(MaxCyc=200)
 -----------------------------------------------

 ---------
 O2_O2_151
 ---------
 Symbolic Z-matrix:
 Charge = -1 Multiplicity = 4

                         Standard orientation:
 ---------------------------------------------------------------------
 Center     Atomic      Atomic             Coordinates (Angstroms)
 Number     Number       Type             X           Y           Z
 ---------------------------------------------------------------------
      1          8           0        0.615183   -2.405183   -0.000000
      2          8           0       -0.205061   -1.584939   -0.000000
      3          8           0       -0.205061    1.415061    0.000000
      4          8           0       -0.205061    2.575061    0.000000
 ---------------------------------------------------------------------

 SCF Done:  E(ROHF) =  -299.227802509     A.U. after   20 cycles
 E2 =    -0.9645916612D+00 EUMP2 =    -0.30019239416994D+03
 CCSD(T)
 CCSD(T)= -0.30020243662D+03

 The electronic state is 4-A".
 Alpha  occ. eigenvalues --  -20.43617 -20.43568 -20.42221 -20.42209  -1.44662
 Alpha  occ. eigenvalues --   -1.44581  -0.87542  -0.87007  -0.55062  -0.54940
 Alpha  occ. eigenvalues --   -0.53031  -0.52877  -0.49748  -0.48653  -0.21944
 Alpha  occ. eigenvalues --   -0.21716  -0.19303  -0.19002
 Alpha virt. eigenvalues --    0.62079   0.68954   0.87986   0.90378   0.91206
 Alpha virt. eigenvalues --    0.93569   0.93964   0.98310   1.01117   1.03106
 Alpha virt. eigenvalues --    1.05043   1.06656   1.08825   1.10981   1.12593

 Mulliken charges and spin densities:
               1          2
     1  O   -0.293201   0.700994
     2  O   -0.206400   0.798936
     3  O   -0.202880   0.803273
     4  O   -0.297518   0.696798
 Sum of Mulliken charges =  -1.00000   3.00000

 Dipole moment (field-independent basis, Debye):
    X=             -0.1582    Y=             -0.0968    Z=              0.0000  Tot=              0.1855
 Quadrupole moment (field-independent basis, Debye-Ang):
   XX=            -22.6298   YY=            -45.8597   ZZ=            -22.4628
   XY=              3.4472   XZ=             -0.0000   YZ=             -0.0000

 708\CCSD=-300.1646428\CCSD(T)=-300.2024366\RMSD=7.847e-09\PG=CS [SG(O4
 Normal termination of Gaussian 16 at Sat Feb 17 23:58:44 2024.
