 Gaussian 16, Revision A.03,
 Gaussian 16:  ES64L-G16RevA.03 25-Dec-2016

 -----------------------------------------------
 #p ROCCSD(T,MaxCyc=200)/cc-pVTZ SCF(MaxCyc=200)
 -----------------------------------------------

 --------
 O2_O2_38
 --------
 Symbolic Z-matrix:
 Charge = -1 Multiplicity = 4

                         Standard orientation:
 ---------------------------------------------------------------------
 Center     Atomic      Atomic             Coordinates (Angstroms)
 Number     Number       Type             X           Y           Z
 ---------------------------------------------------------------------
      1          8           0       -0.870000   -1.030000    0.000000
      2          8           0        0.290000   -1.030000    0.000000
      3          8           0        0.290000    0.450000    0.000000
      4          8           0        0.290000    1.610000    0.000000
 ---------------------------------------------------------------------

 SCF Done:  E(ROHF) =  -299.054591526     A.U. after   24 cycles
 E2 =    -0.9265421266D+00 EUMP2 =    -0.29998113365245D+03
 CCSD(T)
 CCSD(T)= -0.30002089833D+03

 The electronic state is 4-A".
 Alpha  occ. eigenvalues --  -20.49652 -20.38863 -20.29905 -20.28587  -1.51055
 Alpha  occ. eigenvalues --   -1.33306  -0.96206  -0.81168  -0.59005  -0.57692
 Alpha  occ. eigenvalues --   -0.52403  -0.44832  -0.40873  -0.30574  -0.23526
 Alpha  occ. eigenvalues --   -0.18565  -0.09599  -0.07248
 Alpha virt. eigenvalues --    0.63593   0.74645   0.85214   0.91925   0.93473
 Alpha virt. eigenvalues --    0.98595   1.01437   1.02528   1.03914   1.10326
 Alpha virt. eigenvalues --    1.13646   1.17006   1.17751   1.26407   1.29055

 Mulliken charges and spin densities:
               1          2
     1  O   -0.305224   0.627613
     2  O    0.099274   1.148111
     3  O   -0.300839   0.661609
     4  O   -0.493211   0.562667
 Sum of Mulliken charges =  -1.00000   3.00000

 Dipole moment (field-independent basis, Debye):
    X=              0.3151    Y=             -2.9019    Z=              0.0000  Tot=              2.9190
 Quadrupole moment (field-independent basis, Debye-Ang):
   XX=            -23.7408   YY=            -32.5986   ZZ=            -22.0631
   XY=             -2.9711   XZ=              0.0000   YZ=              0.0000

 44\CCSD(T)=-300.0208983\RMSD=2.279e-09\PG=CS [SG(O4)]\\@
 Normal termination of Gaussian 16 at Sat Feb 17 21:16:29 2024.
