 Gaussian 16, Revision A.03,
 Gaussian 16:  ES64L-G16RevA.03 25-Dec-2016

 -----------------------------------------------
 #p ROCCSD(T,MaxCyc=200)/cc-pVTZ SCF(MaxCyc=200)
 -----------------------------------------------

 ---------
 O2_O2_177
 ---------
 Symbolic Z-matrix:
 Charge = -1 Multiplicity = 4

                         Standard orientation:
 ---------------------------------------------------------------------
 Center     Atomic      Atomic             Coordinates (Angstroms)
 Number     Number       Type             X           Y           Z
 ---------------------------------------------------------------------
      1          8           0        0.000000    0.000000    2.840000
      2          8           0        0.000000    0.000000    1.680000
      3          8           0        0.000000    0.000000   -1.680000
      4          8           0        0.000000    0.000000   -2.840000
 ---------------------------------------------------------------------

 SCF Done:  E(ROHF) =  -299.226135357     A.U. after   13 cycles
 E2 =    -0.9648280716D+00 EUMP2 =    -0.30019096342827D+03
 CCSD(T)
 CCSD(T)= -0.30020006413D+03

 Unable to determine electronic state:  partially filled degenerate orbitals.
 Alpha  occ. eigenvalues --  -20.44081 -20.44081 -20.42940 -20.42940  -1.45243
 Alpha  occ. eigenvalues --   -1.45230  -0.88003  -0.87767  -0.55641  -0.55588
 Alpha  occ. eigenvalues --   -0.53599  -0.53540  -0.50135  -0.49508  -0.22573
 Alpha  occ. eigenvalues --   -0.22370  -0.19826  -0.19738
 Alpha virt. eigenvalues --    0.58730   0.70240   0.88211   0.90309   0.91555
 Alpha virt. eigenvalues --    0.91651   0.92918   1.00315   1.00649   1.01491
 Alpha virt. eigenvalues --    1.04208   1.04992   1.06320   1.11265   1.12005

 Mulliken charges and spin densities:
               1          2
     1  O   -0.289543   0.705132
     2  O   -0.210457   0.794868
     3  O   -0.210457   0.794868
     4  O   -0.289543   0.705132
 Sum of Mulliken charges =  -1.00000   3.00000

 Dipole moment (field-independent basis, Debye):
    X=             -0.0000    Y=             -0.0000    Z=              0.0000  Tot=              0.0000
 Quadrupole moment (field-independent basis, Debye-Ang):
   XX=            -22.4447   YY=            -21.3097   ZZ=            -52.5698
   XY=              0.0000   XZ=              0.0000   YZ=              0.0000

 1354\PMP2-0=-300.1909634\MP4SDQ=-300.1654233\CCSD=-300.162399\CCSD(T)=
 Normal termination of Gaussian 16 at Sun Feb 18 00:27:38 2024.
