 Gaussian 16, Revision A.03,
 Gaussian 16:  ES64L-G16RevA.03 25-Dec-2016

 -----------------------------------------------
 #p ROCCSD(T,MaxCyc=200)/cc-pVTZ SCF(MaxCyc=200)
 -----------------------------------------------

 --------
 O2_O2_48
 --------
 Symbolic Z-matrix:
 Charge = -1 Multiplicity = 4

                         Standard orientation:
 ---------------------------------------------------------------------
 Center     Atomic      Atomic             Coordinates (Angstroms)
 Number     Number       Type             X           Y           Z
 ---------------------------------------------------------------------
      1          8           0        0.000000    0.000000    1.980000
      2          8           0        0.000000    0.000000    0.820000
      3          8           0        0.000000    0.000000   -0.820000
      4          8           0        0.000000    0.000000   -1.980000
 ---------------------------------------------------------------------

 SCF Done:  E(ROHF) =  -299.143666672     A.U. after   13 cycles
 E2 =    -0.9658262058D+00 EUMP2 =    -0.30010949287811D+03
 CCSD(T)
 CCSD(T)= -0.30012554370D+03

 Unable to determine electronic state:  an orbital has unidentified symmetry.
 Alpha  occ. eigenvalues --  -20.39677 -20.39673 -20.37751 -20.37750  -1.43064
 Alpha  occ. eigenvalues --   -1.40779  -0.93992  -0.78593  -0.54026  -0.53938
 Alpha  occ. eigenvalues --   -0.52211  -0.50443  -0.48408  -0.33216  -0.22194
 Alpha  occ. eigenvalues --   -0.19311  -0.15334  -0.12702
 Alpha virt. eigenvalues --    0.70920   0.71841   0.91576   0.92719   0.96239
 Alpha virt. eigenvalues --    0.97883   0.99146   1.03887   1.04866   1.05400
 Alpha virt. eigenvalues --    1.12687   1.15984   1.22630   1.23674   1.28436

 Mulliken charges and spin densities:
               1          2
     1  O   -0.358085   0.687811
     2  O   -0.141915   0.812189
     3  O   -0.141915   0.812189
     4  O   -0.358085   0.687811
 Sum of Mulliken charges =  -1.00000   3.00000

 Dipole moment (field-independent basis, Debye):
    X=             -0.0000    Y=             -0.0000    Z=              0.0000  Tot=              0.0000
 Quadrupole moment (field-independent basis, Debye-Ang):
   XX=            -21.2475   YY=            -22.4480   ZZ=            -39.2762
   XY=              0.0000   XZ=              0.0000   YZ=              0.0000

 67\PMP2-0=-300.1094929\MP4SDQ=-300.0909502\CCSD=-300.0868623\CCSD(T)=-
 Normal termination of Gaussian 16 at Sat Feb 17 21:32:23 2024.
