 Gaussian 16, Revision A.03,
 Gaussian 16:  ES64L-G16RevA.03 25-Dec-2016

 -----------------------------------------------
 #p ROCCSD(T,MaxCyc=200)/cc-pVTZ SCF(MaxCyc=200)
 -----------------------------------------------

 --------
 O2_O2_51
 --------
 Symbolic Z-matrix:
 Charge = -1 Multiplicity = 4

                         Standard orientation:
 ---------------------------------------------------------------------
 Center     Atomic      Atomic             Coordinates (Angstroms)
 Number     Number       Type             X           Y           Z
 ---------------------------------------------------------------------
      1          8           0        0.000000    0.000000    2.000000
      2          8           0        0.000000    0.000000    0.840000
      3          8           0        0.000000    0.000000   -0.840000
      4          8           0        0.000000    0.000000   -2.000000
 ---------------------------------------------------------------------

 SCF Done:  E(ROHF) =  -299.158688122     A.U. after   13 cycles
 E2 =    -0.9653445760D+00 EUMP2 =    -0.30012403269781D+03
 CCSD(T)
 CCSD(T)= -0.30013976333D+03

 Unable to determine electronic state:  an orbital has unidentified symmetry.
 Alpha  occ. eigenvalues --  -20.40001 -20.39996 -20.38000 -20.38000  -1.43038
 Alpha  occ. eigenvalues --   -1.41027  -0.93148  -0.79141  -0.53962  -0.53665
 Alpha  occ. eigenvalues --   -0.52114  -0.50726  -0.48694  -0.34570  -0.22066
 Alpha  occ. eigenvalues --   -0.19203  -0.15771  -0.13111
 Alpha virt. eigenvalues --    0.70831   0.71776   0.91388   0.92537   0.96113
 Alpha virt. eigenvalues --    0.97721   0.99413   1.03454   1.04962   1.05245
 Alpha virt. eigenvalues --    1.12733   1.15142   1.22250   1.23329   1.27420

 Mulliken charges and spin densities:
               1          2
     1  O   -0.357556   0.683830
     2  O   -0.142444   0.816170
     3  O   -0.142444   0.816170
     4  O   -0.357556   0.683830
 Sum of Mulliken charges =  -1.00000   3.00000

 Dipole moment (field-independent basis, Debye):
    X=             -0.0000    Y=             -0.0000    Z=             -0.0000  Tot=              0.0000
 Quadrupole moment (field-independent basis, Debye-Ang):
   XX=            -21.2620   YY=            -22.4664   ZZ=            -39.4413
   XY=              0.0000   XZ=              0.0000   YZ=              0.0000

 881\PMP2-0=-300.1240327\MP4SDQ=-300.1052649\CCSD=-300.1012129\CCSD(T)=
 Normal termination of Gaussian 16 at Sat Feb 17 21:37:31 2024.
