 Gaussian 16, Revision A.03,
 Gaussian 16:  ES64L-G16RevA.03 25-Dec-2016

 -----------------------------------------------
 #p ROCCSD(T,MaxCyc=200)/cc-pVTZ SCF(MaxCyc=200)
 -----------------------------------------------

 ---------
 O2_O2_273
 ---------
 Symbolic Z-matrix:
 Charge = -1 Multiplicity = 4

                         Standard orientation:
 ---------------------------------------------------------------------
 Center     Atomic      Atomic             Coordinates (Angstroms)
 Number     Number       Type             X           Y           Z
 ---------------------------------------------------------------------
      1          8           0        0.000000    0.000000    3.480000
      2          8           0        0.000000    0.000000    2.320000
      3          8           0        0.000000    0.000000   -2.320000
      4          8           0        0.000000    0.000000   -3.480000
 ---------------------------------------------------------------------

 SCF Done:  E(ROHF) =  -299.223874844     A.U. after   13 cycles
 E2 =    -0.9656455549D+00 EUMP2 =    -0.30018952039894D+03
 CCSD(T)
 CCSD(T)= -0.30019693914D+03

 Unable to determine electronic state:  partially filled degenerate orbitals.
 Alpha  occ. eigenvalues --  -20.45102 -20.45102 -20.44451 -20.44451  -1.46490
 Alpha  occ. eigenvalues --   -1.46489  -0.89214  -0.89208  -0.56876  -0.56874
 Alpha  occ. eigenvalues --   -0.54838  -0.54838  -0.51199  -0.51164  -0.23766
 Alpha  occ. eigenvalues --   -0.23758  -0.21170  -0.21030
 Alpha virt. eigenvalues --    0.61578   0.64352   0.89837   0.89888   0.91092
 Alpha virt. eigenvalues --    0.91139   0.92413   0.94153   1.01031   1.01225
 Alpha virt. eigenvalues --    1.02333   1.02398   1.03061   1.04496   1.10840

 Mulliken charges and spin densities:
               1          2
     1  O   -0.275853   0.722263
     2  O   -0.224147   0.777737
     3  O   -0.224147   0.777737
     4  O   -0.275853   0.722263
 Sum of Mulliken charges =  -1.00000   3.00000

 Dipole moment (field-independent basis, Debye):
    X=             -0.0000    Y=             -0.0000    Z=              0.0000  Tot=              0.0000
 Quadrupole moment (field-independent basis, Debye-Ang):
   XX=            -22.4152   YY=            -21.3003   ZZ=            -67.9213
   XY=              0.0000   XZ=              0.0000   YZ=              0.0000

 748\PMP2-0=-300.1895204\MP4SDQ=-300.1621796\CCSD=-300.1593796\CCSD(T)=
 Normal termination of Gaussian 16 at Sun Feb 18 01:29:43 2024.
