 Gaussian 16, Revision A.03,
 Gaussian 16:  ES64L-G16RevA.03 25-Dec-2016

 -----------------------------------------------
 #p ROCCSD(T,MaxCyc=200)/cc-pVTZ SCF(MaxCyc=200)
 -----------------------------------------------

 ---------
 O2_O2_240
 ---------
 Symbolic Z-matrix:
 Charge = -1 Multiplicity = 4

                         Standard orientation:
 ---------------------------------------------------------------------
 Center     Atomic      Atomic             Coordinates (Angstroms)
 Number     Number       Type             X           Y           Z
 ---------------------------------------------------------------------
      1          8           0        0.000000    0.000000    3.260000
      2          8           0        0.000000    0.000000    2.100000
      3          8           0        0.000000    0.000000   -2.100000
      4          8           0        0.000000    0.000000   -3.260000
 ---------------------------------------------------------------------

 SCF Done:  E(ROHF) =  -299.223760936     A.U. after   13 cycles
 E2 =    -0.9652977620D+00 EUMP2 =    -0.30018905869844D+03
 CCSD(T)
 CCSD(T)= -0.30019694514D+03

 Unable to determine electronic state:  partially filled degenerate orbitals.
 Alpha  occ. eigenvalues --  -20.44752 -20.44752 -20.44000 -20.44000  -1.46099
 Alpha  occ. eigenvalues --   -1.46098  -0.88819  -0.88794  -0.56488  -0.56482
 Alpha  occ. eigenvalues --   -0.54451  -0.54447  -0.50821  -0.50720  -0.23378
 Alpha  occ. eigenvalues --   -0.23351  -0.20786  -0.20625
 Alpha virt. eigenvalues --    0.60109   0.66369   0.90141   0.90327   0.91263
 Alpha virt. eigenvalues --    0.91396   0.91577   0.96005   1.01177   1.01874
 Alpha virt. eigenvalues --    1.02479   1.02889   1.03049   1.06491   1.11209

 Mulliken charges and spin densities:
               1          2
     1  O   -0.280036   0.717598
     2  O   -0.219964   0.782402
     3  O   -0.219964   0.782402
     4  O   -0.280036   0.717598
 Sum of Mulliken charges =  -1.00000   3.00000

 Dipole moment (field-independent basis, Debye):
    X=             -0.0000    Y=              0.0000    Z=              0.0000  Tot=              0.0000
 Quadrupole moment (field-independent basis, Debye-Ang):
   XX=            -22.4147   YY=            -21.3019   ZZ=            -62.2023
   XY=              0.0000   XZ=              0.0000   YZ=              0.0000

 609\PMP2-0=-300.1890587\MP4SDQ=-300.1622181\CCSD=-300.1593633\CCSD(T)=
 Normal termination of Gaussian 16 at Sun Feb 18 01:12:31 2024.
