 Gaussian 16, Revision A.03,
 Gaussian 16:  ES64L-G16RevA.03 25-Dec-2016

 -----------------------------------------------
 #p ROCCSD(T,MaxCyc=200)/cc-pVTZ SCF(MaxCyc=200)
 -----------------------------------------------

 ---------
 O2_O2_210
 ---------
 Symbolic Z-matrix:
 Charge = -1 Multiplicity = 4

                         Standard orientation:
 ---------------------------------------------------------------------
 Center     Atomic      Atomic             Coordinates (Angstroms)
 Number     Number       Type             X           Y           Z
 ---------------------------------------------------------------------
      1          8           0        0.000000    0.000000    3.060000
      2          8           0        0.000000    0.000000    1.900000
      3          8           0        0.000000    0.000000   -1.900000
      4          8           0        0.000000    0.000000   -3.060000
 ---------------------------------------------------------------------

 SCF Done:  E(ROHF) =  -299.224844992     A.U. after   13 cycles
 E2 =    -0.9650613908D+00 EUMP2 =    -0.30018990638306D+03
 CCSD(T)
 CCSD(T)= -0.30019828159D+03

 Unable to determine electronic state:  partially filled degenerate orbitals.
 Alpha  occ. eigenvalues --  -20.44465 -20.44465 -20.43547 -20.43547  -1.45729
 Alpha  occ. eigenvalues --   -1.45725  -0.88450  -0.88372  -0.56119  -0.56101
 Alpha  occ. eigenvalues --   -0.54080  -0.54059  -0.50488  -0.50240  -0.23019
 Alpha  occ. eigenvalues --   -0.22944  -0.20333  -0.20283
 Alpha virt. eigenvalues --    0.58531   0.68477   0.89517   0.90335   0.90850
 Alpha virt. eigenvalues --    0.91585   0.92110   0.98348   1.01006   1.02178
 Alpha virt. eigenvalues --    1.02903   1.03084   1.04216   1.09910   1.11562

 Mulliken charges and spin densities:
               1          2
     1  O   -0.283984   0.712414
     2  O   -0.216016   0.787586
     3  O   -0.216016   0.787586
     4  O   -0.283984   0.712414
 Sum of Mulliken charges =  -1.00000   3.00000

 Dipole moment (field-independent basis, Debye):
    X=             -0.0000    Y=              0.0000    Z=              0.0000  Tot=              0.0000
 Quadrupole moment (field-independent basis, Debye-Ang):
   XX=            -21.3053   YY=            -22.4288   ZZ=            -57.3835
   XY=              0.0000   XZ=              0.0000   YZ=              0.0000

 5\PMP2-0=-300.1899064\MP4SDQ=-300.1636061\CCSD=-300.1606812\CCSD(T)=-3
 Normal termination of Gaussian 16 at Sun Feb 18 00:55:50 2024.
