 Gaussian 16, Revision A.03,
 Gaussian 16:  ES64L-G16RevA.03 25-Dec-2016

 -----------------------------------------------
 #p ROCCSD(T,MaxCyc=200)/cc-pVTZ SCF(MaxCyc=200)
 -----------------------------------------------

 --------
 O2_O2_87
 --------
 Symbolic Z-matrix:
 Charge = -1 Multiplicity = 4

                         Standard orientation:
 ---------------------------------------------------------------------
 Center     Atomic      Atomic             Coordinates (Angstroms)
 Number     Number       Type             X           Y           Z
 ---------------------------------------------------------------------
      1          8           0        0.000000    0.000000    2.240000
      2          8           0        0.000000    0.000000    1.080000
      3          8           0        0.000000    0.000000   -1.080000
      4          8           0        0.000000    0.000000   -2.240000
 ---------------------------------------------------------------------

 SCF Done:  E(ROHF) =  -299.227218194     A.U. after   13 cycles
 E2 =    -0.9639578609D+00 EUMP2 =    -0.30019117605456D+03
 CCSD(T)
 CCSD(T)= -0.30020398570D+03

 Unable to determine electronic state:  an orbital has unidentified symmetry.
 Alpha  occ. eigenvalues --  -20.42421 -20.42420 -20.40224 -20.40224  -1.43544
 Alpha  occ. eigenvalues --   -1.43080  -0.88239  -0.83840  -0.54125  -0.53144
 Alpha  occ. eigenvalues --   -0.52104  -0.51084  -0.51041  -0.43795  -0.21565
 Alpha  occ. eigenvalues --   -0.19236  -0.18770  -0.16475
 Alpha virt. eigenvalues --    0.68733   0.71519   0.89365   0.90552   0.94663
 Alpha virt. eigenvalues --    0.96042   0.97338   1.00010   1.01368   1.05321
 Alpha virt. eigenvalues --    1.11534   1.13126   1.16289   1.17196   1.18505

 Mulliken charges and spin densities:
               1          2
     1  O   -0.338258   0.675241
     2  O   -0.161742   0.824759
     3  O   -0.161742   0.824759
     4  O   -0.338258   0.675241
 Sum of Mulliken charges =  -1.00000   3.00000

 Dipole moment (field-independent basis, Debye):
    X=             -0.0000    Y=              0.0000    Z=              0.0000  Tot=              0.0000
 Quadrupole moment (field-independent basis, Debye-Ang):
   XX=            -22.5343   YY=            -21.3272   ZZ=            -42.1100
   XY=              0.0000   XZ=              0.0000   YZ=              0.0000

 182\PMP2-0=-300.1911761\MP4SDQ=-300.1696367\CCSD=-300.1660424\CCSD(T)=
 Normal termination of Gaussian 16 at Sat Feb 17 22:35:01 2024.
