 Gaussian 16, Revision A.03,
 Gaussian 16:  ES64L-G16RevA.03 25-Dec-2016

 -----------------------------------------------
 #p ROCCSD(T,MaxCyc=200)/cc-pVTZ SCF(MaxCyc=200)
 -----------------------------------------------

 ---------
 O2_O2_186
 ---------
 Symbolic Z-matrix:
 Charge = -1 Multiplicity = 4

                         Standard orientation:
 ---------------------------------------------------------------------
 Center     Atomic      Atomic             Coordinates (Angstroms)
 Number     Number       Type             X           Y           Z
 ---------------------------------------------------------------------
      1          8           0        0.000000    0.000000    2.900000
      2          8           0        0.000000    0.000000    1.740000
      3          8           0        0.000000    0.000000   -1.740000
      4          8           0        0.000000    0.000000   -2.900000
 ---------------------------------------------------------------------

 SCF Done:  E(ROHF) =  -299.225689306     A.U. after   13 cycles
 E2 =    -0.9648878820D+00 EUMP2 =    -0.30019057718777D+03
 CCSD(T)
 CCSD(T)= -0.30019945822D+03

 Unable to determine electronic state:  partially filled degenerate orbitals.
 Alpha  occ. eigenvalues --  -20.44189 -20.44189 -20.43118 -20.43118  -1.45382
 Alpha  occ. eigenvalues --   -1.45373  -0.88125  -0.87950  -0.55777  -0.55738
 Alpha  occ. eigenvalues --   -0.53736  -0.53691  -0.50223  -0.49735  -0.22697
 Alpha  occ. eigenvalues --   -0.22540  -0.19954  -0.19917
 Alpha virt. eigenvalues --    0.58350   0.69858   0.88411   0.90356   0.91409
 Alpha virt. eigenvalues --    0.91605   0.92673   1.00096   1.00555   1.01729
 Alpha virt. eigenvalues --    1.03797   1.04292   1.05615   1.11122   1.11879

 Mulliken charges and spin densities:
               1          2
     1  O   -0.287754   0.707313
     2  O   -0.212246   0.792687
     3  O   -0.212246   0.792687
     4  O   -0.287754   0.707313
 Sum of Mulliken charges =  -1.00000   3.00000

 Dipole moment (field-independent basis, Debye):
    X=             -0.0000    Y=             -0.0000    Z=              0.0000  Tot=              0.0000
 Quadrupole moment (field-independent basis, Debye-Ang):
   XX=            -22.4394   YY=            -21.3083   ZZ=            -53.8345
   XY=              0.0000   XZ=              0.0000   YZ=              0.0000

 Normal termination of Gaussian 16 at Sun Feb 18 00:36:59 2024.
