 Gaussian 16, Revision A.03,
 Gaussian 16:  ES64L-G16RevA.03 25-Dec-2016

 -----------------------------------------------
 #p ROCCSD(T,MaxCyc=200)/cc-pVTZ SCF(MaxCyc=200)
 -----------------------------------------------

 ---------
 O2_O2_172
 ---------
 Symbolic Z-matrix:
 Charge = -1 Multiplicity = 4

                         Standard orientation:
 ---------------------------------------------------------------------
 Center     Atomic      Atomic             Coordinates (Angstroms)
 Number     Number       Type             X           Y           Z
 ---------------------------------------------------------------------
      1          8           0        0.615183   -2.545183    0.000000
      2          8           0       -0.205061   -1.724939    0.000000
      3          8           0       -0.205061    1.555061    0.000000
      4          8           0       -0.205061    2.715061    0.000000
 ---------------------------------------------------------------------

 SCF Done:  E(ROHF) =  -299.226470601     A.U. after   22 cycles
 E2 =    -0.9647237882D+00 EUMP2 =    -0.30019119438907D+03
 CCSD(T)
 CCSD(T)= -0.30020058929D+03

 The electronic state is 4-A".
 Alpha  occ. eigenvalues --  -20.43874 -20.43869 -20.42765 -20.42670  -1.45015
 Alpha  occ. eigenvalues --   -1.44995  -0.87816  -0.87540  -0.55407  -0.55350
 Alpha  occ. eigenvalues --   -0.53385  -0.53306  -0.49938  -0.49316  -0.22296
 Alpha  occ. eigenvalues --   -0.22172  -0.19629  -0.19508
 Alpha virt. eigenvalues --    0.60518   0.68313   0.87540   0.90657   0.91574
 Alpha virt. eigenvalues --    0.92842   0.93262   0.97893   1.01573   1.02315
 Alpha virt. eigenvalues --    1.03722   1.05476   1.06729   1.10933   1.12233

 Mulliken charges and spin densities:
               1          2
     1  O   -0.286966   0.708472
     2  O   -0.211922   0.791881
     3  O   -0.208901   0.797122
     4  O   -0.292212   0.702526
 Sum of Mulliken charges =  -1.00000   3.00000

 Dipole moment (field-independent basis, Debye):
    X=             -0.1353    Y=             -0.1061    Z=              0.0000  Tot=              0.1719
 Quadrupole moment (field-independent basis, Debye-Ang):
   XX=            -22.6109   YY=            -48.5048   ZZ=            -22.4467
   XY=              3.5436   XZ=             -0.0000   YZ=             -0.0000

 4\CCSD=-300.1628748\CCSD(T)=-300.2005893\RMSD=7.456e-09\PG=CS [SG(O4)]
 Normal termination of Gaussian 16 at Sun Feb 18 00:23:11 2024.
