 Gaussian 16, Revision A.03,
 Gaussian 16:  ES64L-G16RevA.03 25-Dec-2016

 -----------------------------------------------
 #p ROCCSD(T,MaxCyc=200)/cc-pVTZ SCF(MaxCyc=200)
 -----------------------------------------------

 --------
 O2_O2_18
 --------
 Symbolic Z-matrix:
 Charge = -1 Multiplicity = 4

                         Standard orientation:
 ---------------------------------------------------------------------
 Center     Atomic      Atomic             Coordinates (Angstroms)
 Number     Number       Type             X           Y           Z
 ---------------------------------------------------------------------
      1          8           0        0.000000    0.000000    1.780000
      2          8           0        0.000000    0.000000    0.620000
      3          8           0        0.000000    0.000000   -0.620000
      4          8           0        0.000000    0.000000   -1.780000
 ---------------------------------------------------------------------

 SCF Done:  E(ROHF) =  -298.839046279     A.U. after   12 cycles
 E2 =    -0.9933876883D+00 EUMP2 =    -0.29983243396759D+03
 CCSD(T)
 CCSD(T)= -0.29984280446D+03

 The electronic state is 4-SGU.
 Alpha  occ. eigenvalues --  -20.49499 -20.49490 -20.31430 -20.31430  -1.55555
 Alpha  occ. eigenvalues --   -1.41068  -1.15447  -0.71875  -0.64464  -0.64464
 Alpha  occ. eigenvalues --   -0.56381  -0.48368  -0.48368  -0.21654  -0.21654
 Alpha  occ. eigenvalues --   -0.15896  -0.10812  -0.10812
 Alpha virt. eigenvalues --    0.69583   0.73637   0.87337   0.89835   0.89835
 Alpha virt. eigenvalues --    0.95677   1.00166   1.00166   1.08930   1.08930
 Alpha virt. eigenvalues --    1.11726   1.23160   1.23160   1.28164   1.35172

 Mulliken charges and spin densities:
               1          2
     1  O   -0.554604   0.392406
     2  O    0.054604   1.107594
     3  O    0.054604   1.107594
     4  O   -0.554604   0.392406
 Sum of Mulliken charges =  -1.00000   3.00000

 Dipole moment (field-independent basis, Debye):
    X=             -0.0000    Y=              0.0000    Z=              0.0000  Tot=              0.0000
 Quadrupole moment (field-independent basis, Debye-Ang):
   XX=            -21.8543   YY=            -21.8543   ZZ=            -42.5398
   XY=              0.0000   XZ=              0.0000   YZ=              0.0000

 \CCSD(T)=-299.8428045\RMSD=4.166e-09\PG=D*H [C*(O1O1.O1O1)]\\@
 Normal termination of Gaussian 16 at Sat Feb 17 20:41:40 2024.
