 Gaussian 16, Revision A.03,
 Gaussian 16:  ES64L-G16RevA.03 25-Dec-2016

 -----------------------------------------------
 #p ROCCSD(T,MaxCyc=200)/cc-pVTZ SCF(MaxCyc=200)
 -----------------------------------------------

 --------
 O2_O2_16
 --------
 Symbolic Z-matrix:
 Charge = -1 Multiplicity = 4

                         Standard orientation:
 ---------------------------------------------------------------------
 Center     Atomic      Atomic             Coordinates (Angstroms)
 Number     Number       Type             X           Y           Z
 ---------------------------------------------------------------------
      1          8           0        0.615183   -1.505183    0.000000
      2          8           0       -0.205061   -0.684939    0.000000
      3          8           0       -0.205061    0.515061   -0.000000
      4          8           0       -0.205061    1.675061   -0.000000
 ---------------------------------------------------------------------

 SCF Done:  E(ROHF) =  -298.854809091     A.U. after   19 cycles
 E2 =    -0.9538006633D+00 EUMP2 =    -0.29980860975467D+03
 CCSD(T)
 CCSD(T)= -0.29983486437D+03

 The electronic state is 4-A".
 Alpha  occ. eigenvalues --  -20.45339 -20.43178 -20.35394 -20.29329  -1.56100
 Alpha  occ. eigenvalues --   -1.39557  -1.13460  -0.72875  -0.63181  -0.62288
 Alpha  occ. eigenvalues --   -0.56888  -0.46028  -0.45054  -0.23628  -0.21803
 Alpha  occ. eigenvalues --   -0.17798  -0.09227   0.00651
 Alpha virt. eigenvalues --    0.70723   0.76263   0.89769   0.91173   0.91355
 Alpha virt. eigenvalues --    0.94422   1.00577   1.02195   1.06258   1.09375
 Alpha virt. eigenvalues --    1.10979   1.15249   1.18092   1.23892   1.34645

 Mulliken charges and spin densities:
               1          2
     1  O   -0.620734   0.346941
     2  O    0.127939   0.904803
     3  O   -0.137844   0.909394
     4  O   -0.369361   0.838862
 Sum of Mulliken charges =  -1.00000   3.00000

 Dipole moment (field-independent basis, Debye):
    X=             -1.1025    Y=              0.6256    Z=              0.0000  Tot=              1.2676
 Quadrupole moment (field-independent basis, Debye-Ang):
   XX=            -23.4692   YY=            -37.3031   ZZ=            -21.8021
   XY=              3.8717   XZ=             -0.0000   YZ=              0.0000

 9415\CCSD=-299.7954489\CCSD(T)=-299.8348644\RMSD=1.844e-09\PG=CS [SG(O
 Normal termination of Gaussian 16 at Sat Feb 17 20:38:31 2024.
