 Gaussian 16, Revision A.03,
 Gaussian 16:  ES64L-G16RevA.03 25-Dec-2016

 -----------------------------------------------
 #p ROCCSD(T,MaxCyc=200)/cc-pVTZ SCF(MaxCyc=200)
 -----------------------------------------------

 ---------
 O2_O2_103
 ---------
 Symbolic Z-matrix:
 Charge = -1 Multiplicity = 4

                         Standard orientation:
 ---------------------------------------------------------------------
 Center     Atomic      Atomic             Coordinates (Angstroms)
 Number     Number       Type             X           Y           Z
 ---------------------------------------------------------------------
      1          8           0        0.615183   -2.085183   -0.000000
      2          8           0       -0.205061   -1.264939   -0.000000
      3          8           0       -0.205061    1.095061    0.000000
      4          8           0       -0.205061    2.255061    0.000000
 ---------------------------------------------------------------------

 SCF Done:  E(ROHF) =  -299.229469835     A.U. after   28 cycles
 E2 =    -0.9641807538D+00 EUMP2 =    -0.30019365058906D+03
 CCSD(T)
 CCSD(T)= -0.30020575757D+03

 The electronic state is 4-A".
 Alpha  occ. eigenvalues --  -20.43021 -20.42586 -20.40983 -20.40266  -1.43891
 Alpha  occ. eigenvalues --   -1.43220  -0.87531  -0.84954  -0.54354  -0.53821
 Alpha  occ. eigenvalues --   -0.52306  -0.51419  -0.49756  -0.45903  -0.21141
 Alpha  occ. eigenvalues --   -0.20107  -0.18720  -0.17215
 Alpha virt. eigenvalues --    0.66447   0.70734   0.88977   0.90263   0.94025
 Alpha virt. eigenvalues --    0.95793   0.96018   1.00539   1.01534   1.05902
 Alpha virt. eigenvalues --    1.06404   1.12241   1.12455   1.14818   1.15216

 Mulliken charges and spin densities:
               1          2
     1  O   -0.320157   0.669614
     2  O   -0.186333   0.825204
     3  O   -0.172663   0.821642
     4  O   -0.320847   0.683540
 Sum of Mulliken charges =  -1.00000   3.00000

 Dipole moment (field-independent basis, Debye):
    X=             -0.2539    Y=              0.0255    Z=             -0.0000  Tot=              0.2552
 Quadrupole moment (field-independent basis, Debye-Ang):
   XX=            -22.7153   YY=            -40.6807   ZZ=            -22.5129
   XY=              3.2873   XZ=              0.0000   YZ=             -0.0000

 11648\CCSD=-300.1677752\CCSD(T)=-300.2057576\RMSD=6.901e-09\PG=CS [SG(
 Normal termination of Gaussian 16 at Sat Feb 17 22:59:34 2024.
