 Gaussian 16, Revision A.03,
 Gaussian 16:  ES64L-G16RevA.03 25-Dec-2016

 -----------------------------------------------
 #p ROCCSD(T,MaxCyc=200)/cc-pVTZ SCF(MaxCyc=200)
 -----------------------------------------------

 --------
 O2_O2_61
 --------
 Symbolic Z-matrix:
 Charge = -1 Multiplicity = 4

                         Standard orientation:
 ---------------------------------------------------------------------
 Center     Atomic      Atomic             Coordinates (Angstroms)
 Number     Number       Type             X           Y           Z
 ---------------------------------------------------------------------
      1          8           0        0.615183   -1.805183    0.000000
      2          8           0       -0.205061   -0.984939    0.000000
      3          8           0       -0.205061    0.815061    0.000000
      4          8           0       -0.205061    1.975061    0.000000
 ---------------------------------------------------------------------

 SCF Done:  E(ROHF) =  -299.190008553     A.U. after   28 cycles
 E2 =    -0.9648149283D+00 EUMP2 =    -0.30015482348106D+03
 CCSD(T)
 CCSD(T)= -0.30017079125D+03

 The electronic state is 4-A".
 Alpha  occ. eigenvalues --  -20.43138 -20.40528 -20.40276 -20.35548  -1.44503
 Alpha  occ. eigenvalues --   -1.40554  -0.91445  -0.80685  -0.55406  -0.54201
 Alpha  occ. eigenvalues --   -0.53169  -0.48674  -0.48553  -0.39273  -0.21400
 Alpha  occ. eigenvalues --   -0.19602  -0.16130  -0.13695
 Alpha virt. eigenvalues --    0.69408   0.72085   0.89910   0.91459   0.96716
 Alpha virt. eigenvalues --    0.97625   0.98972   1.02104   1.03972   1.05188
 Alpha virt. eigenvalues --    1.08810   1.12335   1.18595   1.20727   1.24435

 Mulliken charges and spin densities:
               1          2
     1  O   -0.406823   0.570957
     2  O   -0.149025   0.866621
     3  O   -0.115620   0.860967
     4  O   -0.328531   0.701455
 Sum of Mulliken charges =  -1.00000   3.00000

 Dipole moment (field-independent basis, Debye):
    X=             -0.5592    Y=              0.7774    Z=             -0.0000  Tot=              0.9576
 Quadrupole moment (field-independent basis, Debye-Ang):
   XX=            -22.9609   YY=            -37.5591   ZZ=            -22.4845
   XY=              3.4196   XZ=              0.0000   YZ=              0.0000

 5373\CCSD=-300.1320948\CCSD(T)=-300.1707912\RMSD=4.626e-10\PG=CS [SG(O
 Normal termination of Gaussian 16 at Sat Feb 17 21:53:33 2024.
