 Gaussian 16, Revision A.03,
 Gaussian 16:  ES64L-G16RevA.03 25-Dec-2016

 -----------------------------------------------
 #p ROCCSD(T,MaxCyc=200)/cc-pVTZ SCF(MaxCyc=200)
 -----------------------------------------------

 ---------
 O2_O2_159
 ---------
 Symbolic Z-matrix:
 Charge = -1 Multiplicity = 4

                         Standard orientation:
 ---------------------------------------------------------------------
 Center     Atomic      Atomic             Coordinates (Angstroms)
 Number     Number       Type             X           Y           Z
 ---------------------------------------------------------------------
      1          8           0        0.000000    0.000000    2.720000
      2          8           0        0.000000    0.000000    1.560000
      3          8           0        0.000000    0.000000   -1.560000
      4          8           0        0.000000    0.000000   -2.720000
 ---------------------------------------------------------------------

 SCF Done:  E(ROHF) =  -299.227288361     A.U. after   13 cycles
 E2 =    -0.9647110114D+00 EUMP2 =    -0.30019199937284D+03
 CCSD(T)
 CCSD(T)= -0.30020159869D+03

 Unable to determine electronic state:  partially filled degenerate orbitals.
 Alpha  occ. eigenvalues --  -20.43857 -20.43857 -20.42553 -20.42553  -1.44949
 Alpha  occ. eigenvalues --   -1.44923  -0.87772  -0.87347  -0.55356  -0.55261
 Alpha  occ. eigenvalues --   -0.53312  -0.53208  -0.49997  -0.48967  -0.22323
 Alpha  occ. eigenvalues --   -0.21986  -0.19567  -0.19335
 Alpha virt. eigenvalues --    0.60252   0.70769   0.88308   0.90093   0.91331
 Alpha virt. eigenvalues --    0.92181   0.93456   0.99785   1.00970   1.01595
 Alpha virt. eigenvalues --    1.05292   1.06738   1.08076   1.11432   1.12269

 Mulliken charges and spin densities:
               1          2
     1  O   -0.294339   0.700238
     2  O   -0.205661   0.799762
     3  O   -0.205661   0.799762
     4  O   -0.294339   0.700238
 Sum of Mulliken charges =  -1.00000   3.00000

 Dipole moment (field-independent basis, Debye):
    X=             -0.0000    Y=              0.0000    Z=              0.0000  Tot=              0.0000
 Quadrupole moment (field-independent basis, Debye-Ang):
   XX=            -21.3130   YY=            -22.4582   ZZ=            -50.1494
   XY=              0.0000   XZ=              0.0000   YZ=              0.0000

 Normal termination of Gaussian 16 at Sun Feb 18 00:09:00 2024.
