 Gaussian 16, Revision A.03,
 Gaussian 16:  ES64L-G16RevA.03 25-Dec-2016

 -----------------------------------------------
 #p ROCCSD(T,MaxCyc=200)/cc-pVTZ SCF(MaxCyc=200)
 -----------------------------------------------

 --------
 O2_O2_26
 --------
 Symbolic Z-matrix:
 Charge = -1 Multiplicity = 4

                         Standard orientation:
 ---------------------------------------------------------------------
 Center     Atomic      Atomic             Coordinates (Angstroms)
 Number     Number       Type             X           Y           Z
 ---------------------------------------------------------------------
      1          8           0       -0.870000   -0.950000    0.000000
      2          8           0        0.290000   -0.950000    0.000000
      3          8           0        0.290000    0.370000    0.000000
      4          8           0        0.290000    1.530000    0.000000
 ---------------------------------------------------------------------

 SCF Done:  E(ROHF) =  -298.925372643     A.U. after   21 cycles
 E2 =    -0.9430751088D+00 EUMP2 =    -0.29986844775214D+03
 CCSD(T)
 CCSD(T)= -0.29990297006D+03

 The electronic state is 4-A".
 Alpha  occ. eigenvalues --  -20.48508 -20.36207 -20.32492 -20.30277  -1.54857
 Alpha  occ. eigenvalues --   -1.35650  -1.01015  -0.80738  -0.60674  -0.58631
 Alpha  occ. eigenvalues --   -0.53002  -0.45345  -0.42994  -0.26290  -0.20082
 Alpha  occ. eigenvalues --   -0.14802  -0.09998  -0.07395
 Alpha virt. eigenvalues --    0.64850   0.72907   0.84559   0.92213   0.94209
 Alpha virt. eigenvalues --    0.97982   1.02330   1.02592   1.04912   1.11128
 Alpha virt. eigenvalues --    1.13320   1.15952   1.16044   1.25917   1.31578

 Mulliken charges and spin densities:
               1          2
     1  O   -0.475065   0.435042
     2  O    0.119675   1.086814
     3  O   -0.144522   0.884870
     4  O   -0.500087   0.593274
 Sum of Mulliken charges =  -1.00000   3.00000

 Dipole moment (field-independent basis, Debye):
    X=              1.1327    Y=             -1.8225    Z=              0.0000  Tot=              2.1458
 Quadrupole moment (field-independent basis, Debye-Ang):
   XX=            -24.3399   YY=            -32.4830   ZZ=            -21.9051
   XY=             -3.3536   XZ=              0.0000   YZ=              0.0000

 04\CCSD(T)=-299.9029701\RMSD=5.436e-09\PG=CS [SG(O4)]\\@
 Normal termination of Gaussian 16 at Sat Feb 17 20:54:51 2024.
