 Gaussian 16, Revision A.03,
 Gaussian 16:  ES64L-G16RevA.03 25-Dec-2016

 -----------------------------------------------
 #p ROCCSD(T,MaxCyc=200)/cc-pVTZ SCF(MaxCyc=200)
 -----------------------------------------------

 ---------
 O2_O2_168
 ---------
 Symbolic Z-matrix:
 Charge = -1 Multiplicity = 4

                         Standard orientation:
 ---------------------------------------------------------------------
 Center     Atomic      Atomic             Coordinates (Angstroms)
 Number     Number       Type             X           Y           Z
 ---------------------------------------------------------------------
      1          8           0        0.000000    0.000000    2.780000
      2          8           0        0.000000    0.000000    1.620000
      3          8           0        0.000000    0.000000   -1.620000
      4          8           0        0.000000    0.000000   -2.780000
 ---------------------------------------------------------------------

 SCF Done:  E(ROHF) =  -299.226666556     A.U. after   13 cycles
 E2 =    -0.9647695441D+00 EUMP2 =    -0.30019143610054D+03
 CCSD(T)
 CCSD(T)= -0.30020077557D+03

 Unable to determine electronic state:  partially filled degenerate orbitals.
 Alpha  occ. eigenvalues --  -20.43971 -20.43971 -20.42753 -20.42752  -1.45099
 Alpha  occ. eigenvalues --   -1.45080  -0.87884  -0.87568  -0.55501  -0.55430
 Alpha  occ. eigenvalues --   -0.53458  -0.53379  -0.50058  -0.49254  -0.22448
 Alpha  occ. eigenvalues --   -0.22186  -0.19697  -0.19545
 Alpha virt. eigenvalues --    0.59372   0.70541   0.88168   0.90223   0.91465
 Alpha virt. eigenvalues --    0.91909   0.93179   1.00053   1.01146   1.01232
 Alpha virt. eigenvalues --    1.04705   1.05805   1.07138   1.11363   1.12136

 Mulliken charges and spin densities:
               1          2
     1  O   -0.291702   0.702779
     2  O   -0.208298   0.797221
     3  O   -0.208298   0.797221
     4  O   -0.291702   0.702779
 Sum of Mulliken charges =  -1.00000   3.00000

 Dipole moment (field-independent basis, Debye):
    X=             -0.0000    Y=             -0.0000    Z=             -0.0000  Tot=              0.0000
 Quadrupole moment (field-independent basis, Debye-Ang):
   XX=            -21.3113   YY=            -22.4510   ZZ=            -51.3414
   XY=              0.0000   XZ=              0.0000   YZ=              0.0000

 666\PMP2-0=-300.1914361\MP4SDQ=-300.1661464\CCSD=-300.1630888\CCSD(T)=
 Normal termination of Gaussian 16 at Sun Feb 18 00:18:22 2024.
