 Gaussian 16, Revision A.03,
 Gaussian 16:  ES64L-G16RevA.03 25-Dec-2016

 -----------------------------------------------
 #p ROCCSD(T,MaxCyc=200)/cc-pVTZ SCF(MaxCyc=200)
 -----------------------------------------------

 --------
 O2_O2_94
 --------
 Symbolic Z-matrix:
 Charge = -1 Multiplicity = 4

                         Standard orientation:
 ---------------------------------------------------------------------
 Center     Atomic      Atomic             Coordinates (Angstroms)
 Number     Number       Type             X           Y           Z
 ---------------------------------------------------------------------
      1          8           0        0.615183   -2.025183    0.000000
      2          8           0       -0.205061   -1.204939    0.000000
      3          8           0       -0.205061    1.035061   -0.000000
      4          8           0       -0.205061    2.195061   -0.000000
 ---------------------------------------------------------------------

 SCF Done:  E(ROHF) =  -299.227711031     A.U. after   25 cycles
 E2 =    -0.9641427804D+00 EUMP2 =    -0.30019185381157D+03
 CCSD(T)
 CCSD(T)= -0.30020449154D+03

 The electronic state is 4-A".
 Alpha  occ. eigenvalues --  -20.42906 -20.42301 -20.40745 -20.39678  -1.43795
 Alpha  occ. eigenvalues --   -1.42851  -0.87805  -0.84332  -0.54303  -0.53643
 Alpha  occ. eigenvalues --   -0.52237  -0.51017  -0.49806  -0.45013  -0.21024
 Alpha  occ. eigenvalues --   -0.19620  -0.18691  -0.16716
 Alpha virt. eigenvalues --    0.67105   0.71024   0.89011   0.90339   0.94856
 Alpha virt. eigenvalues --    0.96160   0.96834   1.01258   1.01995   1.05631
 Alpha virt. eigenvalues --    1.06731   1.12385   1.14804   1.15853   1.16586

 Mulliken charges and spin densities:
               1          2
     1  O   -0.329569   0.658695
     2  O   -0.180547   0.832935
     3  O   -0.163451   0.825938
     4  O   -0.326433   0.682432
 Sum of Mulliken charges =  -1.00000   3.00000

 Dipole moment (field-independent basis, Debye):
    X=             -0.2874    Y=              0.0861    Z=              0.0000  Tot=              0.3000
 Quadrupole moment (field-independent basis, Debye-Ang):
   XX=            -22.7444   YY=            -39.8746   ZZ=            -22.5201
   XY=              3.2786   XZ=             -0.0000   YZ=              0.0000

 48\CCSD=-300.1664465\CCSD(T)=-300.2044915\RMSD=3.450e-09\PG=CS [SG(O4)
 Normal termination of Gaussian 16 at Sat Feb 17 22:45:39 2024.
