 Gaussian 16, Revision A.03,
 Gaussian 16:  ES64L-G16RevA.03 25-Dec-2016

 -----------------------------------------------
 #p ROCCSD(T,MaxCyc=200)/cc-pVTZ SCF(MaxCyc=200)
 -----------------------------------------------

 --------
 O2_O2_96
 --------
 Symbolic Z-matrix:
 Charge = -1 Multiplicity = 4

                         Standard orientation:
 ---------------------------------------------------------------------
 Center     Atomic      Atomic             Coordinates (Angstroms)
 Number     Number       Type             X           Y           Z
 ---------------------------------------------------------------------
      1          8           0        0.000000    0.000000    2.300000
      2          8           0        0.000000    0.000000    1.140000
      3          8           0        0.000000    0.000000   -1.140000
      4          8           0        0.000000    0.000000   -2.300000
 ---------------------------------------------------------------------

 SCF Done:  E(ROHF) =  -299.229953450     A.U. after   13 cycles
 E2 =    -0.9640550653D+00 EUMP2 =    -0.30019400851485D+03
 CCSD(T)
 CCSD(T)= -0.30020626869D+03

 Unable to determine electronic state:  an orbital has unidentified symmetry.
 Alpha  occ. eigenvalues --  -20.42728 -20.42727 -20.40624 -20.40624  -1.43734
 Alpha  occ. eigenvalues --   -1.43411  -0.87861  -0.84573  -0.54271  -0.53537
 Alpha  occ. eigenvalues --   -0.52237  -0.51474  -0.50652  -0.44963  -0.21600
 Alpha  occ. eigenvalues --   -0.19770  -0.18809  -0.17017
 Alpha virt. eigenvalues --    0.68006   0.71478   0.89147   0.90339   0.94328
 Alpha virt. eigenvalues --    0.95681   0.95816   0.99595   1.00917   1.04752
 Alpha virt. eigenvalues --    1.11498   1.12947   1.14129   1.15807   1.17139

 Mulliken charges and spin densities:
               1          2
     1  O   -0.331138   0.677968
     2  O   -0.168862   0.822032
     3  O   -0.168862   0.822032
     4  O   -0.331138   0.677968
 Sum of Mulliken charges =  -1.00000   3.00000

 Dipole moment (field-independent basis, Debye):
    X=             -0.0000    Y=              0.0000    Z=              0.0000  Tot=              0.0000
 Quadrupole moment (field-independent basis, Debye-Ang):
   XX=            -22.5279   YY=            -21.3280   ZZ=            -42.9425
   XY=              0.0000   XZ=              0.0000   YZ=              0.0000

 534\PMP2-0=-300.1940085\MP4SDQ=-300.1718732\CCSD=-300.1683714\CCSD(T)=
 Normal termination of Gaussian 16 at Sat Feb 17 22:48:37 2024.
