 Gaussian 16, Revision A.03,
 Gaussian 16:  ES64L-G16RevA.03 25-Dec-2016

 -----------------------------------------------
 #p ROCCSD(T,MaxCyc=200)/cc-pVTZ SCF(MaxCyc=200)
 -----------------------------------------------

 ---------
 O2_O2_101
 ---------
 Symbolic Z-matrix:
 Charge = -1 Multiplicity = 4

                         Standard orientation:
 ---------------------------------------------------------------------
 Center     Atomic      Atomic             Coordinates (Angstroms)
 Number     Number       Type             X           Y           Z
 ---------------------------------------------------------------------
      1          8           0       -0.870000   -1.450000    0.000000
      2          8           0        0.290000   -1.450000    0.000000
      3          8           0        0.290000    0.870000    0.000000
      4          8           0        0.290000    2.030000    0.000000
 ---------------------------------------------------------------------

 SCF Done:  E(ROHF) =  -299.232142235     A.U. after   23 cycles
 E2 =    -0.9634325045D+00 EUMP2 =    -0.30019557473912D+03
 CCSD(T)
 CCSD(T)= -0.30020848899D+03

 The electronic state is 4-A'.
 Alpha  occ. eigenvalues --  -20.41860 -20.41253 -20.41126 -20.39508  -1.43069
 Alpha  occ. eigenvalues --   -1.42404  -0.86277  -0.84800  -0.53647  -0.52669
 Alpha  occ. eigenvalues --   -0.52582  -0.50878  -0.48003  -0.45025  -0.20440
 Alpha  occ. eigenvalues --   -0.19505  -0.18197  -0.16047
 Alpha virt. eigenvalues --    0.65408   0.70558   0.89128   0.92729   0.95664
 Alpha virt. eigenvalues --    0.95955   0.96899   0.99441   1.01382   1.03621
 Alpha virt. eigenvalues --    1.05922   1.09738   1.12070   1.14102   1.21784

 Mulliken charges and spin densities:
               1          2
     1  O   -0.273158   0.726094
     2  O   -0.223578   0.778632
     3  O   -0.167807   0.826537
     4  O   -0.335457   0.668737
 Sum of Mulliken charges =  -1.00000   3.00000

 Dipole moment (field-independent basis, Debye):
    X=              0.1348    Y=             -0.4029    Z=              0.0000  Tot=              0.4248
 Quadrupole moment (field-independent basis, Debye-Ang):
   XX=            -24.5099   YY=            -36.2023   ZZ=            -21.3334
   XY=             -2.3402   XZ=              0.0000   YZ=              0.0000

 24\CCSD(T)=-300.208489\RMSD=3.456e-09\PG=CS [SG(O4)]\\@
 Normal termination of Gaussian 16 at Sat Feb 17 22:56:43 2024.
