 Gaussian 16, Revision A.03,
 Gaussian 16:  ES64L-G16RevA.03 25-Dec-2016

 -----------------------------------------------
 #p ROCCSD(T,MaxCyc=200)/cc-pVTZ SCF(MaxCyc=200)
 -----------------------------------------------

 ---------
 O2_O2_213
 ---------
 Symbolic Z-matrix:
 Charge = -1 Multiplicity = 4

                         Standard orientation:
 ---------------------------------------------------------------------
 Center     Atomic      Atomic             Coordinates (Angstroms)
 Number     Number       Type             X           Y           Z
 ---------------------------------------------------------------------
      1          8           0        0.000000    0.000000    3.080000
      2          8           0        0.000000    0.000000    1.920000
      3          8           0        0.000000    0.000000   -1.920000
      4          8           0        0.000000    0.000000   -3.080000
 ---------------------------------------------------------------------

 SCF Done:  E(ROHF) =  -299.224768215     A.U. after   13 cycles
 E2 =    -0.9650851659D+00 EUMP2 =    -0.30018985338141D+03
 CCSD(T)
 CCSD(T)= -0.30019817239D+03

 Unable to determine electronic state:  partially filled degenerate orbitals.
 Alpha  occ. eigenvalues --  -20.44498 -20.44498 -20.43597 -20.43597  -1.45770
 Alpha  occ. eigenvalues --   -1.45767  -0.88490  -0.88419  -0.56160  -0.56144
 Alpha  occ. eigenvalues --   -0.54121  -0.54101  -0.50523  -0.50295  -0.23058
 Alpha  occ. eigenvalues --   -0.22990  -0.20380  -0.20322
 Alpha virt. eigenvalues --    0.58650   0.68275   0.89692   0.90321   0.90790
 Alpha virt. eigenvalues --    0.91572   0.92049   0.98108   1.01041   1.02213
 Alpha virt. eigenvalues --    1.02770   1.03033   1.04082   1.09569   1.11524

 Mulliken charges and spin densities:
               1          2
     1  O   -0.283561   0.712988
     2  O   -0.216439   0.787012
     3  O   -0.216439   0.787012
     4  O   -0.283561   0.712988
 Sum of Mulliken charges =  -1.00000   3.00000

 Dipole moment (field-independent basis, Debye):
    X=             -0.0000    Y=              0.0000    Z=              0.0000  Tot=              0.0000
 Quadrupole moment (field-independent basis, Debye-Ang):
   XX=            -21.3049   YY=            -22.4278   ZZ=            -57.8451
   XY=              0.0000   XZ=              0.0000   YZ=              0.0000

 82\PMP2-0=-300.1898534\MP4SDQ=-300.1634938\CCSD=-300.1605764\CCSD(T)=-
 Normal termination of Gaussian 16 at Sun Feb 18 00:57:32 2024.
