 Gaussian 16, Revision A.03,
 Gaussian 16:  ES64L-G16RevA.03 25-Dec-2016

 -----------------------------------------------
 #p ROCCSD(T,MaxCyc=200)/cc-pVTZ SCF(MaxCyc=200)
 -----------------------------------------------

 --------
 O2_O2_27
 --------
 Symbolic Z-matrix:
 Charge = -1 Multiplicity = 4

                         Standard orientation:
 ---------------------------------------------------------------------
 Center     Atomic      Atomic             Coordinates (Angstroms)
 Number     Number       Type             X           Y           Z
 ---------------------------------------------------------------------
      1          8           0        0.000000    0.000000    1.840000
      2          8           0        0.000000    0.000000    0.680000
      3          8           0        0.000000    0.000000   -0.680000
      4          8           0        0.000000    0.000000   -1.840000
 ---------------------------------------------------------------------

 SCF Done:  E(ROHF) =  -298.940432209     A.U. after   13 cycles
 E2 =    -0.9740372506D+00 EUMP2 =    -0.29991446945950D+03
 CCSD(T)
 CCSD(T)= -0.29993325449D+03

 Unable to determine electronic state:  an orbital has unidentified symmetry.
 Alpha  occ. eigenvalues --  -20.37282 -20.37282 -20.35464 -20.35464  -1.44660
 Alpha  occ. eigenvalues --   -1.38638  -1.03299  -0.74196  -0.55769  -0.55600
 Alpha  occ. eigenvalues --   -0.54249  -0.48108  -0.45913  -0.23883  -0.20618
 Alpha  occ. eigenvalues --   -0.18752  -0.11250  -0.08992
 Alpha virt. eigenvalues --    0.70929   0.72775   0.92443   0.93555   0.94514
 Alpha virt. eigenvalues --    0.97087   0.99119   1.00265   1.07185   1.08675
 Alpha virt. eigenvalues --    1.12758   1.25100   1.25813   1.26294   1.35360

 Mulliken charges and spin densities:
               1          2
     1  O   -0.340283   0.745309
     2  O   -0.159717   0.754691
     3  O   -0.159717   0.754691
     4  O   -0.340283   0.745309
 Sum of Mulliken charges =  -1.00000   3.00000

 Dipole moment (field-independent basis, Debye):
    X=             -0.0000    Y=             -0.0000    Z=             -0.0000  Tot=              0.0000
 Quadrupole moment (field-independent basis, Debye-Ang):
   XX=            -22.2230   YY=            -21.0612   ZZ=            -38.6604
   XY=              0.0000   XZ=              0.0000   YZ=             -0.0000

 322\PMP2-0=-299.9144695\MP4SDQ=-299.8966928\CCSD=-299.8924728\CCSD(T)=
 Normal termination of Gaussian 16 at Sat Feb 17 20:56:10 2024.
