 Gaussian 16, Revision A.03,
 Gaussian 16:  ES64L-G16RevA.03 25-Dec-2016

 -----------------------------------------------
 #p ROCCSD(T,MaxCyc=200)/cc-pVTZ SCF(MaxCyc=200)
 -----------------------------------------------

 --------
 O2_O2_63
 --------
 Symbolic Z-matrix:
 Charge = -1 Multiplicity = 4

                         Standard orientation:
 ---------------------------------------------------------------------
 Center     Atomic      Atomic             Coordinates (Angstroms)
 Number     Number       Type             X           Y           Z
 ---------------------------------------------------------------------
      1          8           0        0.000000    0.000000    2.080000
      2          8           0        0.000000    0.000000    0.920000
      3          8           0        0.000000    0.000000   -0.920000
      4          8           0        0.000000    0.000000   -2.080000
 ---------------------------------------------------------------------

 SCF Done:  E(ROHF) =  -299.198883375     A.U. after   13 cycles
 E2 =    -0.9642538865D+00 EUMP2 =    -0.30016313726107D+03
 CCSD(T)
 CCSD(T)= -0.30017773466D+03

 Unable to determine electronic state:  an orbital has unidentified symmetry.
 Alpha  occ. eigenvalues --  -20.41088 -20.41085 -20.38880 -20.38879  -1.43102
 Alpha  occ. eigenvalues --   -1.41880  -0.90625  -0.81079  -0.53881  -0.52623
 Alpha  occ. eigenvalues --   -0.51940  -0.51717  -0.49681  -0.38819  -0.21727
 Alpha  occ. eigenvalues --   -0.18910  -0.17240  -0.14509
 Alpha virt. eigenvalues --    0.70310   0.71618   0.90604   0.91771   0.95612
 Alpha virt. eigenvalues --    0.97110   0.99688   1.01949   1.03415   1.06076
 Alpha virt. eigenvalues --    1.12820   1.12960   1.20668   1.21856   1.23438

 Mulliken charges and spin densities:
               1          2
     1  O   -0.353083   0.674898
     2  O   -0.146917   0.825102
     3  O   -0.146917   0.825102
     4  O   -0.353083   0.674898
 Sum of Mulliken charges =  -1.00000   3.00000

 Dipole moment (field-independent basis, Debye):
    X=             -0.0000    Y=             -0.0000    Z=             -0.0000  Tot=              0.0000
 Quadrupole moment (field-independent basis, Debye-Ang):
   XX=            -21.3015   YY=            -22.5150   ZZ=            -40.2018
   XY=              0.0000   XZ=              0.0000   YZ=              0.0000

 4\PMP2-0=-300.1631373\MP4SDQ=-300.1434175\CCSD=-300.1395243\CCSD(T)=-3
 Normal termination of Gaussian 16 at Sat Feb 17 21:56:24 2024.
