 Gaussian 16, Revision A.03,
 Gaussian 16:  ES64L-G16RevA.03 25-Dec-2016

 -----------------------------------------------
 #p ROCCSD(T,MaxCyc=200)/cc-pVTZ SCF(MaxCyc=200)
 -----------------------------------------------

 -------
 O2_O2_6
 -------
 Symbolic Z-matrix:
 Charge = -1 Multiplicity = 4

                         Standard orientation:
 ---------------------------------------------------------------------
 Center     Atomic      Atomic             Coordinates (Angstroms)
 Number     Number       Type             X           Y           Z
 ---------------------------------------------------------------------
      1          8           0        0.000000    0.000000    1.700000
      2          8           0        0.000000    0.000000    0.540000
      3          8           0        0.000000    0.000000   -0.540000
      4          8           0        0.000000    0.000000   -1.700000
 ---------------------------------------------------------------------

 SCF Done:  E(ROHF) =  -298.670242193     A.U. after   12 cycles
 E2 =    -0.9831502107D+00 EUMP2 =    -0.29965339240387D+03
 CCSD(T)
 CCSD(T)= -0.29966529779D+03

 The electronic state is 4-SGU.
 Alpha  occ. eigenvalues --  -20.50899 -20.50824 -20.28851 -20.28849  -1.67802
 Alpha  occ. eigenvalues --   -1.40253  -1.21869  -0.72723  -0.72723  -0.68270
 Alpha  occ. eigenvalues --   -0.56320  -0.46293  -0.46293  -0.21775  -0.21775
 Alpha  occ. eigenvalues --   -0.07690  -0.07690   0.00985
 Alpha virt. eigenvalues --    0.66231   0.74300   0.81935   0.88200   0.88200
 Alpha virt. eigenvalues --    0.92216   1.01132   1.01132   1.10026   1.10026
 Alpha virt. eigenvalues --    1.11653   1.23706   1.23706   1.38280   1.46681

 Mulliken charges and spin densities:
               1          2
     1  O   -0.561402   0.378754
     2  O    0.061402   1.121246
     3  O    0.061402   1.121246
     4  O   -0.561402   0.378754
 Sum of Mulliken charges =  -1.00000   3.00000

 Dipole moment (field-independent basis, Debye):
    X=             -0.0000    Y=              0.0000    Z=             -0.0000  Tot=              0.0000
 Quadrupole moment (field-independent basis, Debye-Ang):
   XX=            -21.5998   YY=            -21.5998   ZZ=            -43.7342
   XY=             -0.0000   XZ=              0.0000   YZ=             -0.0000

 2\CCSD(T)=-299.6652978\RMSD=3.590e-09\PG=D*H [C*(O1O1.O1O1)]\\@
 Normal termination of Gaussian 16 at Sat Feb 17 20:22:38 2024.
