 Gaussian 16, Revision A.03,
 Gaussian 16:  ES64L-G16RevA.03 25-Dec-2016

 -----------------------------------------------
 #p ROCCSD(T,MaxCyc=200)/cc-pVTZ SCF(MaxCyc=200)
 -----------------------------------------------

 --------
 O2_O2_19
 --------
 Symbolic Z-matrix:
 Charge = -1 Multiplicity = 4

                         Standard orientation:
 ---------------------------------------------------------------------
 Center     Atomic      Atomic             Coordinates (Angstroms)
 Number     Number       Type             X           Y           Z
 ---------------------------------------------------------------------
      1          8           0        0.615183   -1.525183    0.000000
      2          8           0       -0.205061   -0.704939    0.000000
      3          8           0       -0.205061    0.535061   -0.000000
      4          8           0       -0.205061    1.695061   -0.000000
 ---------------------------------------------------------------------

 SCF Done:  E(ROHF) =  -298.897372915     A.U. after   19 cycles
 E2 =    -0.9502484820D+00 EUMP2 =    -0.29984762139683D+03
 CCSD(T)
 CCSD(T)= -0.29987580707D+03

 The electronic state is 4-A".
 Alpha  occ. eigenvalues --  -20.45578 -20.41291 -20.35273 -20.30527  -1.53682
 Alpha  occ. eigenvalues --   -1.39375  -1.11595  -0.73216  -0.61485  -0.61074
 Alpha  occ. eigenvalues --   -0.56498  -0.46144  -0.45563  -0.24242  -0.21581
 Alpha  occ. eigenvalues --   -0.18168  -0.09733  -0.02304
 Alpha virt. eigenvalues --    0.70824   0.75750   0.90217   0.91570   0.91784
 Alpha virt. eigenvalues --    0.95216   1.00441   1.02037   1.06057   1.09041
 Alpha virt. eigenvalues --    1.11228   1.14383   1.18453   1.23948   1.33239

 Mulliken charges and spin densities:
               1          2
     1  O   -0.587650   0.386413
     2  O    0.127070   0.981143
     3  O   -0.159038   0.849347
     4  O   -0.380382   0.783098
 Sum of Mulliken charges =  -1.00000   3.00000

 Dipole moment (field-independent basis, Debye):
    X=             -0.9965    Y=              0.4038    Z=             -0.0000  Tot=              1.0752
 Quadrupole moment (field-independent basis, Debye-Ang):
   XX=            -23.4101   YY=            -37.1380   ZZ=            -21.8507
   XY=              3.7777   XZ=             -0.0000   YZ=              0.0000

 5616\CCSD=-299.8364638\CCSD(T)=-299.8758071\RMSD=2.883e-09\PG=CS [SG(O
 Normal termination of Gaussian 16 at Sat Feb 17 20:43:27 2024.
