 Gaussian 16, Revision A.03,
 Gaussian 16:  ES64L-G16RevA.03 25-Dec-2016

 -----------------------------------------------
 #p ROCCSD(T,MaxCyc=200)/cc-pVTZ SCF(MaxCyc=200)
 -----------------------------------------------

 ---------
 O2_O2_118
 ---------
 Symbolic Z-matrix:
 Charge = -1 Multiplicity = 4

                         Standard orientation:
 ---------------------------------------------------------------------
 Center     Atomic      Atomic             Coordinates (Angstroms)
 Number     Number       Type             X           Y           Z
 ---------------------------------------------------------------------
      1          8           0        0.615183   -2.185183    0.000000
      2          8           0       -0.205061   -1.364939    0.000000
      3          8           0       -0.205061    1.195061    0.000000
      4          8           0       -0.205061    2.355061    0.000000
 ---------------------------------------------------------------------

 SCF Done:  E(ROHF) =  -299.229937353     A.U. after   23 cycles
 E2 =    -0.9643111952D+00 EUMP2 =    -0.30019424854839D+03
 CCSD(T)
 CCSD(T)= -0.30020559566D+03

 The electronic state is 4-A".
 Alpha  occ. eigenvalues --  -20.43212 -20.42965 -20.41387 -20.41039  -1.44110
 Alpha  occ. eigenvalues --   -1.43733  -0.87353  -0.85780  -0.54534  -0.54179
 Alpha  occ. eigenvalues --   -0.52496  -0.51974  -0.49674  -0.47044  -0.21377
 Alpha  occ. eigenvalues --   -0.20743  -0.18851  -0.17903
 Alpha virt. eigenvalues --    0.65244   0.70169   0.89075   0.90402   0.92080
 Alpha virt. eigenvalues --    0.95017   0.95199   0.99496   1.01074   1.04974
 Alpha virt. eigenvalues --    1.06833   1.09412   1.11787   1.12937   1.13721

 Mulliken charges and spin densities:
               1          2
     1  O   -0.308703   0.682885
     2  O   -0.194229   0.814810
     3  O   -0.185540   0.815224
     4  O   -0.311527   0.687080
 Sum of Mulliken charges =  -1.00000   3.00000

 Dipole moment (field-independent basis, Debye):
    X=             -0.2134    Y=             -0.0379    Z=              0.0000  Tot=              0.2167
 Quadrupole moment (field-independent basis, Debye-Ang):
   XX=            -22.6788   YY=            -42.1535   ZZ=            -22.4969
   XY=              3.3225   XZ=             -0.0000   YZ=             -0.0000

 09815\CCSD=-300.1676842\CCSD(T)=-300.2055957\RMSD=5.616e-09\PG=CS [SG(
 Normal termination of Gaussian 16 at Sat Feb 17 23:20:18 2024.
