 Gaussian 16, Revision A.03,
 Gaussian 16:  ES64L-G16RevA.03 25-Dec-2016

 -----------------------------------------------
 #p ROCCSD(T,MaxCyc=200)/cc-pVTZ SCF(MaxCyc=200)
 -----------------------------------------------

 ---------
 O2_O2_125
 ---------
 Symbolic Z-matrix:
 Charge = -1 Multiplicity = 4

                         Standard orientation:
 ---------------------------------------------------------------------
 Center     Atomic      Atomic             Coordinates (Angstroms)
 Number     Number       Type             X           Y           Z
 ---------------------------------------------------------------------
      1          8           0       -0.870000   -1.610000    0.000000
      2          8           0        0.290000   -1.610000    0.000000
      3          8           0        0.290000    1.030000    0.000000
      4          8           0        0.290000    2.190000    0.000000
 ---------------------------------------------------------------------

 SCF Done:  E(ROHF) =  -299.233524714     A.U. after   27 cycles
 E2 =    -0.9637969339D+00 EUMP2 =    -0.30019732164759D+03
 CCSD(T)
 CCSD(T)= -0.30020906753D+03

 The electronic state is 4-A'.
 Alpha  occ. eigenvalues --  -20.42585 -20.42011 -20.41927 -20.40541  -1.43586
 Alpha  occ. eigenvalues --   -1.43294  -0.86526  -0.85786  -0.54101  -0.53569
 Alpha  occ. eigenvalues --   -0.52388  -0.51597  -0.48631  -0.46960  -0.20989
 Alpha  occ. eigenvalues --   -0.20435  -0.18521  -0.17259
 Alpha virt. eigenvalues --    0.64707   0.68740   0.89209   0.90270   0.92642
 Alpha virt. eigenvalues --    0.94843   0.95991   0.99847   1.01395   1.02982
 Alpha virt. eigenvalues --    1.05454   1.07808   1.08009   1.13544   1.18212

 Mulliken charges and spin densities:
               1          2
     1  O   -0.267557   0.732279
     2  O   -0.229026   0.771486
     3  O   -0.185879   0.818446
     4  O   -0.317538   0.677789
 Sum of Mulliken charges =  -1.00000   3.00000

 Dipole moment (field-independent basis, Debye):
    X=              0.0897    Y=             -0.3691    Z=              0.0000  Tot=              0.3799
 Quadrupole moment (field-independent basis, Debye-Ang):
   XX=            -24.4807   YY=            -38.2946   ZZ=            -21.3262
   XY=             -2.5345   XZ=              0.0000   YZ=              0.0000

 04\CCSD(T)=-300.2090675\RMSD=1.609e-09\PG=CS [SG(O4)]\\@
 Normal termination of Gaussian 16 at Sat Feb 17 23:31:25 2024.
