 Gaussian 16, Revision A.03,
 Gaussian 16:  ES64L-G16RevA.03 25-Dec-2016

 -----------------------------------------------
 #p ROCCSD(T,MaxCyc=200)/cc-pVTZ SCF(MaxCyc=200)
 -----------------------------------------------

 ---------
 O2_O2_183
 ---------
 Symbolic Z-matrix:
 Charge = -1 Multiplicity = 4

                         Standard orientation:
 ---------------------------------------------------------------------
 Center     Atomic      Atomic             Coordinates (Angstroms)
 Number     Number       Type             X           Y           Z
 ---------------------------------------------------------------------
      1          8           0        0.000000    0.000000    2.880000
      2          8           0        0.000000    0.000000    1.720000
      3          8           0        0.000000    0.000000   -1.720000
      4          8           0        0.000000    0.000000   -2.880000
 ---------------------------------------------------------------------

 SCF Done:  E(ROHF) =  -299.225829041     A.U. after   13 cycles
 E2 =    -0.9648677396D+00 EUMP2 =    -0.30019069678048D+03
 CCSD(T)
 CCSD(T)= -0.30019964903D+03

 Unable to determine electronic state:  partially filled degenerate orbitals.
 Alpha  occ. eigenvalues --  -20.44153 -20.44153 -20.43060 -20.43060  -1.45337
 Alpha  occ. eigenvalues --   -1.45326  -0.88084  -0.87891  -0.55732  -0.55689
 Alpha  occ. eigenvalues --   -0.53691  -0.53642  -0.50193  -0.49662  -0.22655
 Alpha  occ. eigenvalues --   -0.22485  -0.19911  -0.19859
 Alpha virt. eigenvalues --    0.58447   0.69994   0.88328   0.90345   0.91488
 Alpha virt. eigenvalues --    0.91592   0.92753   1.00287   1.00479   1.01653
 Alpha virt. eigenvalues --    1.03925   1.04513   1.05838   1.11177   1.11921

 Mulliken charges and spin densities:
               1          2
     1  O   -0.288316   0.706604
     2  O   -0.211684   0.793396
     3  O   -0.211684   0.793396
     4  O   -0.288316   0.706604
 Sum of Mulliken charges =  -1.00000   3.00000

 Dipole moment (field-independent basis, Debye):
    X=             -0.0000    Y=              0.0000    Z=              0.0000  Tot=              0.0000
 Quadrupole moment (field-independent basis, Debye-Ang):
   XX=            -22.4411   YY=            -21.3087   ZZ=            -53.4089
   XY=              0.0000   XZ=              0.0000   YZ=              0.0000

 9\PMP2-0=-300.1906968\MP4SDQ=-300.1650013\CCSD=-300.1619975\CCSD(T)=-3
 Normal termination of Gaussian 16 at Sun Feb 18 00:33:47 2024.
