 Gaussian 16, Revision A.03,
 Gaussian 16:  ES64L-G16RevA.03 25-Dec-2016

 -----------------------------------------------
 #p ROCCSD(T,MaxCyc=200)/cc-pVTZ SCF(MaxCyc=200)
 -----------------------------------------------

 ---------
 O2_O2_261
 ---------
 Symbolic Z-matrix:
 Charge = -1 Multiplicity = 4

                         Standard orientation:
 ---------------------------------------------------------------------
 Center     Atomic      Atomic             Coordinates (Angstroms)
 Number     Number       Type             X           Y           Z
 ---------------------------------------------------------------------
      1          8           0        0.000000    0.000000    3.400000
      2          8           0        0.000000    0.000000    2.240000
      3          8           0        0.000000    0.000000   -2.240000
      4          8           0        0.000000    0.000000   -3.400000
 ---------------------------------------------------------------------

 SCF Done:  E(ROHF) =  -299.223849484     A.U. after   13 cycles
 E2 =    -0.9655195814D+00 EUMP2 =    -0.30018936906540D+03
 CCSD(T)
 CCSD(T)= -0.30019694638D+03

 Unable to determine electronic state:  partially filled degenerate orbitals.
 Alpha  occ. eigenvalues --  -20.44982 -20.44982 -20.44296 -20.44296  -1.46355
 Alpha  occ. eigenvalues --   -1.46355  -0.89077  -0.89066  -0.56742  -0.56739
 Alpha  occ. eigenvalues --   -0.54704  -0.54703  -0.51066  -0.51014  -0.23632
 Alpha  occ. eigenvalues --   -0.23619  -0.21037  -0.20891
 Alpha virt. eigenvalues --    0.61150   0.65003   0.89950   0.90033   0.91205
 Alpha virt. eigenvalues --    0.91284   0.92120   0.94708   1.01107   1.01422
 Alpha virt. eigenvalues --    1.02409   1.02596   1.02990   1.05043   1.10969

 Mulliken charges and spin densities:
               1          2
     1  O   -0.277292   0.720686
     2  O   -0.222708   0.779314
     3  O   -0.222708   0.779314
     4  O   -0.277292   0.720686
 Sum of Mulliken charges =  -1.00000   3.00000

 Dipole moment (field-independent basis, Debye):
    X=             -0.0000    Y=             -0.0000    Z=              0.0000  Tot=              0.0000
 Quadrupole moment (field-independent basis, Debye-Ang):
   XX=            -21.3008   YY=            -22.4152   ZZ=            -65.7844
   XY=              0.0000   XZ=              0.0000   YZ=              0.0000

 Normal termination of Gaussian 16 at Sun Feb 18 01:23:26 2024.
