 Gaussian 16, Revision A.03,
 Gaussian 16:  ES64L-G16RevA.03 25-Dec-2016

 -----------------------------------------------
 #p ROCCSD(T,MaxCyc=200)/cc-pVTZ SCF(MaxCyc=200)
 -----------------------------------------------

 --------
 O2_O2_62
 --------
 Symbolic Z-matrix:
 Charge = -1 Multiplicity = 4

                         Standard orientation:
 ---------------------------------------------------------------------
 Center     Atomic      Atomic             Coordinates (Angstroms)
 Number     Number       Type             X           Y           Z
 ---------------------------------------------------------------------
      1          8           0       -0.870000   -1.190000    0.000000
      2          8           0        0.290000   -1.190000    0.000000
      3          8           0        0.290000    0.610000    0.000000
      4          8           0        0.290000    1.770000    0.000000
 ---------------------------------------------------------------------

 SCF Done:  E(ROHF) =  -299.179579576     A.U. after   27 cycles
 E2 =    -0.9637031401D+00 EUMP2 =    -0.30014328271659D+03
 CCSD(T)
 CCSD(T)= -0.30015875913D+03

 The electronic state is 4-A'.
 Alpha  occ. eigenvalues --  -20.40180 -20.38676 -20.38372 -20.37589  -1.43024
 Alpha  occ. eigenvalues --   -1.40069  -0.88226  -0.81931  -0.54882  -0.53543
 Alpha  occ. eigenvalues --   -0.50413  -0.49937  -0.45845  -0.38255  -0.19855
 Alpha  occ. eigenvalues --   -0.17384  -0.17019  -0.12931
 Alpha virt. eigenvalues --    0.66671   0.72149   0.91157   0.92525   0.96006
 Alpha virt. eigenvalues --    0.96646   0.98054   1.04822   1.05162   1.06837
 Alpha virt. eigenvalues --    1.07260   1.11982   1.14998   1.23046   1.26056

 Mulliken charges and spin densities:
               1          2
     1  O   -0.298889   0.701772
     2  O   -0.218730   0.769637
     3  O   -0.121542   0.854780
     4  O   -0.360839   0.673811
 Sum of Mulliken charges =  -1.00000   3.00000

 Dipole moment (field-independent basis, Debye):
    X=              0.3438    Y=             -0.2417    Z=              0.0000  Tot=              0.4203
 Quadrupole moment (field-independent basis, Debye-Ang):
   XX=            -24.4995   YY=            -33.7365   ZZ=            -21.2942
   XY=             -2.0879   XZ=              0.0000   YZ=              0.0000

 9\CCSD(T)=-300.1587591\RMSD=3.098e-09\PG=CS [SG(O4)]\\@
 Normal termination of Gaussian 16 at Sat Feb 17 21:55:08 2024.
