 Gaussian 16, Revision A.03,
 Gaussian 16:  ES64L-G16RevA.03 25-Dec-2016

 -----------------------------------------------
 #p ROCCSD(T,MaxCyc=200)/cc-pVTZ SCF(MaxCyc=200)
 -----------------------------------------------

 --------
 O2_O2_60
 --------
 Symbolic Z-matrix:
 Charge = -1 Multiplicity = 4

                         Standard orientation:
 ---------------------------------------------------------------------
 Center     Atomic      Atomic             Coordinates (Angstroms)
 Number     Number       Type             X           Y           Z
 ---------------------------------------------------------------------
      1          8           0        0.000000    0.000000    2.060000
      2          8           0        0.000000    0.000000    0.900000
      3          8           0        0.000000    0.000000   -0.900000
      4          8           0        0.000000    0.000000   -2.060000
 ---------------------------------------------------------------------

 SCF Done:  E(ROHF) =  -299.191273295     A.U. after   13 cycles
 E2 =    -0.9644287296D+00 EUMP2 =    -0.30015570202449D+03
 CCSD(T)
 CCSD(T)= -0.30017056396D+03

 Unable to determine electronic state:  an orbital has unidentified symmetry.
 Alpha  occ. eigenvalues --  -20.40847 -20.40844 -20.38675 -20.38675  -1.43068
 Alpha  occ. eigenvalues --   -1.41686  -0.91144  -0.80633  -0.53881  -0.52872
 Alpha  occ. eigenvalues --   -0.51959  -0.51490  -0.49456  -0.37906  -0.21790
 Alpha  occ. eigenvalues --   -0.18965  -0.16910  -0.14192
 Alpha virt. eigenvalues --    0.70462   0.71645   0.90800   0.91963   0.95736
 Alpha virt. eigenvalues --    0.97258   0.99729   1.02290   1.03769   1.05968
 Alpha virt. eigenvalues --    1.12903   1.13258   1.21074   1.22238   1.24417

 Mulliken charges and spin densities:
               1          2
     1  O   -0.354443   0.676268
     2  O   -0.145557   0.823732
     3  O   -0.145557   0.823732
     4  O   -0.354443   0.676268
 Sum of Mulliken charges =  -1.00000   3.00000

 Dipole moment (field-independent basis, Debye):
    X=             -0.0000    Y=             -0.0000    Z=              0.0000  Tot=              0.0000
 Quadrupole moment (field-independent basis, Debye-Ang):
   XX=            -22.5062   YY=            -21.2940   ZZ=            -39.9981
   XY=              0.0000   XZ=              0.0000   YZ=              0.0000

 3\PMP2-0=-300.155702\MP4SDQ=-300.1362234\CCSD=-300.1322896\CCSD(T)=-30
 Normal termination of Gaussian 16 at Sat Feb 17 21:52:02 2024.
