 Gaussian 16, Revision A.03,
 Gaussian 16:  ES64L-G16RevA.03 25-Dec-2016

 -----------------------------------------------
 #p ROCCSD(T,MaxCyc=200)/cc-pVTZ SCF(MaxCyc=200)
 -----------------------------------------------

 --------
 O2_O2_89
 --------
 Symbolic Z-matrix:
 Charge = -1 Multiplicity = 4

                         Standard orientation:
 ---------------------------------------------------------------------
 Center     Atomic      Atomic             Coordinates (Angstroms)
 Number     Number       Type             X           Y           Z
 ---------------------------------------------------------------------
      1          8           0       -0.870000   -1.370000    0.000000
      2          8           0        0.290000   -1.370000    0.000000
      3          8           0        0.290000    0.790000    0.000000
      4          8           0        0.290000    1.950000    0.000000
 ---------------------------------------------------------------------

 SCF Done:  E(ROHF) =  -299.226809035     A.U. after   23 cycles
 E2 =    -0.9633677698D+00 EUMP2 =    -0.30019017680437D+03
 CCSD(T)
 CCSD(T)= -0.30020369388D+03

 The electronic state is 4-A'.
 Alpha  occ. eigenvalues --  -20.41330 -20.40788 -20.40579 -20.38882  -1.42869
 Alpha  occ. eigenvalues --   -1.41823  -0.86376  -0.84145  -0.53473  -0.53107
 Alpha  occ. eigenvalues --   -0.51932  -0.50504  -0.47585  -0.43567  -0.20183
 Alpha  occ. eigenvalues --   -0.18900  -0.18028  -0.15287
 Alpha virt. eigenvalues --    0.65749   0.71213   0.89472   0.93848   0.95698
 Alpha virt. eigenvalues --    0.96561   0.96769   1.01067   1.02543   1.04001
 Alpha virt. eigenvalues --    1.06127   1.10559   1.14356   1.15244   1.23268

 Mulliken charges and spin densities:
               1          2
     1  O   -0.277308   0.722378
     2  O   -0.219968   0.782259
     3  O   -0.156854   0.829808
     4  O   -0.345870   0.665554
 Sum of Mulliken charges =  -1.00000   3.00000

 Dipole moment (field-independent basis, Debye):
    X=              0.1679    Y=             -0.4192    Z=              0.0000  Tot=              0.4516
 Quadrupole moment (field-independent basis, Debye-Ang):
   XX=            -24.5153   YY=            -35.3050   ZZ=            -21.3331
   XY=             -2.2512   XZ=              0.0000   YZ=              0.0000

 \CCSD(T)=-300.2036939\RMSD=2.422e-09\PG=CS [SG(O4)]\\@
 Normal termination of Gaussian 16 at Sat Feb 17 22:38:17 2024.
