 Gaussian 16, Revision A.03,
 Gaussian 16:  ES64L-G16RevA.03 25-Dec-2016

 -----------------------------------------------
 #p ROCCSD(T,MaxCyc=200)/cc-pVTZ SCF(MaxCyc=200)
 -----------------------------------------------

 --------
 O2_O2_72
 --------
 Symbolic Z-matrix:
 Charge = -1 Multiplicity = 4

                         Standard orientation:
 ---------------------------------------------------------------------
 Center     Atomic      Atomic             Coordinates (Angstroms)
 Number     Number       Type             X           Y           Z
 ---------------------------------------------------------------------
      1          8           0        0.000000    0.000000    2.140000
      2          8           0        0.000000    0.000000    0.980000
      3          8           0        0.000000    0.000000   -0.980000
      4          8           0        0.000000    0.000000   -2.140000
 ---------------------------------------------------------------------

 SCF Done:  E(ROHF) =  -299.214897926     A.U. after   13 cycles
 E2 =    -0.9639763566D+00 EUMP2 =    -0.30017887428258D+03
 CCSD(T)
 CCSD(T)= -0.30019273859D+03

 Unable to determine electronic state:  an orbital has unidentified symmetry.
 Alpha  occ. eigenvalues --  -20.41700 -20.41697 -20.39439 -20.39439  -1.43244
 Alpha  occ. eigenvalues --   -1.42396  -0.89416  -0.82274  -0.53933  -0.52328
 Alpha  occ. eigenvalues --   -0.51951  -0.51938  -0.50283  -0.41099  -0.21607
 Alpha  occ. eigenvalues --   -0.18803  -0.18108  -0.15354
 Alpha virt. eigenvalues --    0.69780   0.71567   0.90050   0.91228   0.95246
 Alpha virt. eigenvalues --    0.96688   0.99187   1.01064   1.02490   1.06055
 Alpha virt. eigenvalues --    1.11975   1.13096   1.19413   1.20599   1.20658

 Mulliken charges and spin densities:
               1          2
     1  O   -0.348331   0.673185
     2  O   -0.151669   0.826815
     3  O   -0.151669   0.826815
     4  O   -0.348331   0.673185
 Sum of Mulliken charges =  -1.00000   3.00000

 Dipole moment (field-independent basis, Debye):
    X=             -0.0000    Y=              0.0000    Z=              0.0000  Tot=              0.0000
 Quadrupole moment (field-independent basis, Debye-Ang):
   XX=            -21.3170   YY=            -22.5311   ZZ=            -40.8613
   XY=              0.0000   XZ=              0.0000   YZ=              0.0000

 979\PMP2-0=-300.1788743\MP4SDQ=-300.1584406\CCSD=-300.154667\CCSD(T)=-
 Normal termination of Gaussian 16 at Sat Feb 17 22:12:06 2024.
