 Gaussian 16, Revision A.03,
 Gaussian 16:  ES64L-G16RevA.03 25-Dec-2016

 -----------------------------------------------
 #p ROCCSD(T,MaxCyc=200)/cc-pVTZ SCF(MaxCyc=200)
 -----------------------------------------------

 --------
 O2_O2_35
 --------
 Symbolic Z-matrix:
 Charge = -1 Multiplicity = 4

                         Standard orientation:
 ---------------------------------------------------------------------
 Center     Atomic      Atomic             Coordinates (Angstroms)
 Number     Number       Type             X           Y           Z
 ---------------------------------------------------------------------
      1          8           0       -0.870000   -1.010000    0.000000
      2          8           0        0.290000   -1.010000    0.000000
      3          8           0        0.290000    0.430000    0.000000
      4          8           0        0.290000    1.590000    0.000000
 ---------------------------------------------------------------------

 SCF Done:  E(ROHF) =  -299.027208733     A.U. after   22 cycles
 E2 =    -0.9297885145D+00 EUMP2 =    -0.29995699724751D+03
 CCSD(T)
 CCSD(T)= -0.29999543783D+03

 The electronic state is 4-A".
 Alpha  occ. eigenvalues --  -20.49281 -20.37457 -20.31078 -20.28968  -1.51472
 Alpha  occ. eigenvalues --   -1.33879  -0.97152  -0.81186  -0.59043  -0.57693
 Alpha  occ. eigenvalues --   -0.52233  -0.45198  -0.41404  -0.29624  -0.22761
 Alpha  occ. eigenvalues --   -0.17348  -0.09663  -0.07861
 Alpha virt. eigenvalues --    0.63921   0.74282   0.85063   0.92145   0.93695
 Alpha virt. eigenvalues --    0.98465   1.01779   1.02868   1.03765   1.10707
 Alpha virt. eigenvalues --    1.13357   1.16847   1.17340   1.26366   1.29711

 Mulliken charges and spin densities:
               1          2
     1  O   -0.339145   0.588936
     2  O    0.101837   1.138796
     3  O   -0.267175   0.705817
     4  O   -0.495517   0.566450
 Sum of Mulliken charges =  -1.00000   3.00000

 Dipole moment (field-independent basis, Debye):
    X=              0.4839    Y=             -2.6420    Z=              0.0000  Tot=              2.6860
 Quadrupole moment (field-independent basis, Debye-Ang):
   XX=            -23.8616   YY=            -32.5631   ZZ=            -22.0226
   XY=             -3.0420   XZ=              0.0000   YZ=              0.0000

 3\CCSD(T)=-299.9954378\RMSD=2.671e-09\PG=CS [SG(O4)]\\@
 Normal termination of Gaussian 16 at Sat Feb 17 21:11:29 2024.
