 Gaussian 16, Revision A.03,
 Gaussian 16:  ES64L-G16RevA.03 25-Dec-2016

 -----------------------------------------------
 #p ROCCSD(T,MaxCyc=200)/cc-pVTZ SCF(MaxCyc=200)
 -----------------------------------------------

 ---------
 O2_O2_110
 ---------
 Symbolic Z-matrix:
 Charge = -1 Multiplicity = 4

                         Standard orientation:
 ---------------------------------------------------------------------
 Center     Atomic      Atomic             Coordinates (Angstroms)
 Number     Number       Type             X           Y           Z
 ---------------------------------------------------------------------
      1          8           0       -0.870000   -1.510000    0.000000
      2          8           0        0.290000   -1.510000    0.000000
      3          8           0        0.290000    0.930000    0.000000
      4          8           0        0.290000    2.090000    0.000000
 ---------------------------------------------------------------------

 SCF Done:  E(ROHF) =  -299.233575323     A.U. after   22 cycles
 E2 =    -0.9635599461D+00 EUMP2 =    -0.30019713526912D+03
 CCSD(T)
 CCSD(T)= -0.30020960003D+03

 The electronic state is 4-A'.
 Alpha  occ. eigenvalues --  -20.42175 -20.41556 -20.41467 -20.39927  -1.43254
 Alpha  occ. eigenvalues --   -1.42774  -0.86323  -0.85212  -0.53808  -0.52994
 Alpha  occ. eigenvalues --   -0.52482  -0.51157  -0.48264  -0.45876  -0.20644
 Alpha  occ. eigenvalues --   -0.19891  -0.18316  -0.16544
 Alpha virt. eigenvalues --    0.65148   0.69961   0.89055   0.91917   0.94594
 Alpha virt. eigenvalues --    0.95527   0.96386   0.99832   1.00748   1.03362
 Alpha virt. eigenvalues --    1.05759   1.09050   1.10245   1.13871   1.20533

 Mulliken charges and spin densities:
               1          2
     1  O   -0.270806   0.728562
     2  O   -0.225780   0.775827
     3  O   -0.175415   0.823709
     4  O   -0.328000   0.671902
 Sum of Mulliken charges =  -1.00000   3.00000

 Dipole moment (field-independent basis, Debye):
    X=              0.1154    Y=             -0.3899    Z=              0.0000  Tot=              0.4066
 Quadrupole moment (field-independent basis, Debye-Ang):
   XX=            -24.5008   YY=            -36.9425   ZZ=            -21.3312
   XY=             -2.4112   XZ=              0.0000   YZ=              0.0000

 74\CCSD(T)=-300.2096\RMSD=4.660e-09\PG=CS [SG(O4)]\\@
 Normal termination of Gaussian 16 at Sat Feb 17 23:09:47 2024.
