 Gaussian 16, Revision A.03,
 Gaussian 16:  ES64L-G16RevA.03 25-Dec-2016

 -----------------------------------------------
 #p ROCCSD(T,MaxCyc=200)/cc-pVTZ SCF(MaxCyc=200)
 -----------------------------------------------

 ---------
 O2_O2_180
 ---------
 Symbolic Z-matrix:
 Charge = -1 Multiplicity = 4

                         Standard orientation:
 ---------------------------------------------------------------------
 Center     Atomic      Atomic             Coordinates (Angstroms)
 Number     Number       Type             X           Y           Z
 ---------------------------------------------------------------------
      1          8           0        0.000000    0.000000    2.860000
      2          8           0        0.000000    0.000000    1.700000
      3          8           0        0.000000    0.000000   -1.700000
      4          8           0        0.000000    0.000000   -2.860000
 ---------------------------------------------------------------------

 SCF Done:  E(ROHF) =  -299.225977611     A.U. after   13 cycles
 E2 =    -0.9648478148D+00 EUMP2 =    -0.30019082542543D+03
 CCSD(T)
 CCSD(T)= -0.30019985088D+03

 Unable to determine electronic state:  partially filled degenerate orbitals.
 Alpha  occ. eigenvalues --  -20.44117 -20.44117 -20.43000 -20.43000  -1.45290
 Alpha  occ. eigenvalues --   -1.45278  -0.88043  -0.87830  -0.55687  -0.55639
 Alpha  occ. eigenvalues --   -0.53645  -0.53591  -0.50163  -0.49587  -0.22614
 Alpha  occ. eigenvalues --   -0.22428  -0.19869  -0.19799
 Alpha virt. eigenvalues --    0.58574   0.70122   0.88261   0.90329   0.91568
 Alpha virt. eigenvalues --    0.91576   0.92834   1.00398   1.00471   1.01574
 Alpha virt. eigenvalues --    1.04062   1.04746   1.06072   1.11224   1.11963

 Mulliken charges and spin densities:
               1          2
     1  O   -0.288911   0.705877
     2  O   -0.211089   0.794123
     3  O   -0.211089   0.794123
     4  O   -0.288911   0.705877
 Sum of Mulliken charges =  -1.00000   3.00000

 Dipole moment (field-independent basis, Debye):
    X=             -0.0000    Y=             -0.0000    Z=             -0.0000  Tot=              0.0000
 Quadrupole moment (field-independent basis, Debye-Ang):
   XX=            -21.3092   YY=            -22.4428   ZZ=            -52.9874
   XY=              0.0000   XZ=              0.0000   YZ=              0.0000

 76\PMP2-0=-300.1908254\MP4SDQ=-300.1652066\CCSD=-300.1621926\CCSD(T)=-
 Normal termination of Gaussian 16 at Sun Feb 18 00:30:45 2024.
