 Gaussian 16, Revision A.03,
 Gaussian 16:  ES64L-G16RevA.03 25-Dec-2016

 -----------------------------------------------
 #p ROCCSD(T,MaxCyc=200)/cc-pVTZ SCF(MaxCyc=200)
 -----------------------------------------------

 --------
 O2_O2_52
 --------
 Symbolic Z-matrix:
 Charge = -1 Multiplicity = 4

                         Standard orientation:
 ---------------------------------------------------------------------
 Center     Atomic      Atomic             Coordinates (Angstroms)
 Number     Number       Type             X           Y           Z
 ---------------------------------------------------------------------
      1          8           0        0.615183   -1.745183    0.000000
      2          8           0       -0.205061   -0.924939    0.000000
      3          8           0       -0.205061    0.755061   -0.000000
      4          8           0       -0.205061    1.915061   -0.000000
 ---------------------------------------------------------------------

 SCF Done:  E(ROHF) =  -299.173276254     A.U. after   30 cycles
 E2 =    -0.9338052906D+00 EUMP2 =    -0.30010708154417D+03
 CCSD(T)
 CCSD(T)= -0.30014156486D+03

 The electronic state is 4-A".
 Alpha  occ. eigenvalues --  -20.52610 -20.44674 -20.29611 -20.28973  -1.51242
 Alpha  occ. eigenvalues --   -1.33182  -0.96840  -0.77245  -0.60791  -0.60712
 Alpha  occ. eigenvalues --   -0.55150  -0.44077  -0.40946  -0.35595  -0.26623
 Alpha  occ. eigenvalues --   -0.23144  -0.10910  -0.06624
 Alpha virt. eigenvalues --    0.65947   0.76481   0.89259   0.89882   0.93449
 Alpha virt. eigenvalues --    0.97903   0.99615   0.99736   1.03027   1.05530
 Alpha virt. eigenvalues --    1.13273   1.16046   1.20714   1.22970   1.25882

 Mulliken charges and spin densities:
               1          2
     1  O   -0.304416   0.668722
     2  O    0.159262   1.221603
     3  O   -0.415555   0.510193
     4  O   -0.439291   0.599481
 Sum of Mulliken charges =  -1.00000   3.00000

 Dipole moment (field-independent basis, Debye):
    X=             -0.0794    Y=             -3.4435    Z=              0.0000  Tot=              3.4444
 Quadrupole moment (field-independent basis, Debye-Ang):
   XX=            -22.6500   YY=            -37.2987   ZZ=            -22.3284
   XY=              3.1553   XZ=              0.0000   YZ=              0.0000

 896\CCSD=-300.1032395\CCSD(T)=-300.1415649\RMSD=2.447e-09\PG=CS [SG(O4
 Normal termination of Gaussian 16 at Sat Feb 17 21:39:33 2024.
