 Gaussian 16, Revision A.03,
 Gaussian 16:  ES64L-G16RevA.03 25-Dec-2016

 -----------------------------------------------
 #p ROCCSD(T,MaxCyc=200)/cc-pVTZ SCF(MaxCyc=200)
 -----------------------------------------------

 --------
 O2_O2_36
 --------
 Symbolic Z-matrix:
 Charge = -1 Multiplicity = 4

                         Standard orientation:
 ---------------------------------------------------------------------
 Center     Atomic      Atomic             Coordinates (Angstroms)
 Number     Number       Type             X           Y           Z
 ---------------------------------------------------------------------
      1          8           0        0.000000    0.000000    1.900000
      2          8           0        0.000000    0.000000    0.740000
      3          8           0        0.000000    0.000000   -0.740000
      4          8           0        0.000000    0.000000   -1.900000
 ---------------------------------------------------------------------

 SCF Done:  E(ROHF) =  -299.053227284     A.U. after   13 cycles
 E2 =    -0.9691512661D+00 EUMP2 =    -0.30002237854989D+03
 CCSD(T)
 CCSD(T)= -0.30003991298D+03

 Unable to determine electronic state:  an orbital has unidentified symmetry.
 Alpha  occ. eigenvalues --  -20.38249 -20.38245 -20.36590 -20.36589  -1.43525
 Alpha  occ. eigenvalues --   -1.39637  -0.98493  -0.76177  -0.55024  -0.54589
 Alpha  occ. eigenvalues --   -0.52975  -0.49177  -0.47089  -0.26184  -0.22957
 Alpha  occ. eigenvalues --   -0.19925  -0.13238  -0.10776
 Alpha virt. eigenvalues --    0.71082   0.72252   0.92206   0.93331   0.96735
 Alpha virt. eigenvalues --    0.97139   0.98568   1.02653   1.05774   1.07284
 Alpha virt. eigenvalues --    1.12635   1.20715   1.24091   1.24965   1.32477

 Mulliken charges and spin densities:
               1          2
     1  O   -0.354441   0.713708
     2  O   -0.145559   0.786292
     3  O   -0.145559   0.786292
     4  O   -0.354441   0.713708
 Sum of Mulliken charges =  -1.00000   3.00000

 Dipole moment (field-independent basis, Debye):
    X=             -0.0000    Y=              0.0000    Z=              0.0000  Tot=              0.0000
 Quadrupole moment (field-independent basis, Debye-Ang):
   XX=            -21.1625   YY=            -22.3418   ZZ=            -38.7643
   XY=              0.0000   XZ=              0.0000   YZ=              0.0000

 273\PMP2-0=-300.0223785\MP4SDQ=-300.0045667\CCSD=-300.0003758\CCSD(T)=
 Normal termination of Gaussian 16 at Sat Feb 17 21:12:53 2024.
