 Gaussian 16, Revision A.03,
 Gaussian 16:  ES64L-G16RevA.03 25-Dec-2016

 -----------------------------------------------
 #p ROCCSD(T,MaxCyc=200)/cc-pVTZ SCF(MaxCyc=200)
 -----------------------------------------------

 ---------
 O2_O2_113
 ---------
 Symbolic Z-matrix:
 Charge = -1 Multiplicity = 4

                         Standard orientation:
 ---------------------------------------------------------------------
 Center     Atomic      Atomic             Coordinates (Angstroms)
 Number     Number       Type             X           Y           Z
 ---------------------------------------------------------------------
      1          8           0       -0.870000   -1.530000    0.000000
      2          8           0        0.290000   -1.530000    0.000000
      3          8           0        0.290000    0.950000    0.000000
      4          8           0        0.290000    2.110000    0.000000
 ---------------------------------------------------------------------

 SCF Done:  E(ROHF) =  -299.233749863     A.U. after   27 cycles
 E2 =    -0.9636078739D+00 EUMP2 =    -0.30019735773698D+03
 CCSD(T)
 CCSD(T)= -0.30020967491D+03

 The electronic state is 4-A'.
 Alpha  occ. eigenvalues --  -20.42267 -20.41651 -20.41569 -20.40057  -1.43318
 Alpha  occ. eigenvalues --   -1.42887  -0.86354  -0.85337  -0.53864  -0.53119
 Alpha  occ. eigenvalues --   -0.52444  -0.51247  -0.48344  -0.46123  -0.20713
 Alpha  occ. eigenvalues --   -0.20009  -0.18356  -0.16697
 Alpha virt. eigenvalues --    0.65061   0.69738   0.89061   0.91634   0.94111
 Alpha virt. eigenvalues --    0.95388   0.96285   1.00044   1.00615   1.03281
 Alpha virt. eigenvalues --    1.05702   1.08809   1.09723   1.13802   1.20090

 Mulliken charges and spin densities:
               1          2
     1  O   -0.270112   0.729343
     2  O   -0.226457   0.774918
     3  O   -0.177739   0.822699
     4  O   -0.325691   0.673039
 Sum of Mulliken charges =  -1.00000   3.00000

 Dipole moment (field-independent basis, Debye):
    X=              0.1097    Y=             -0.3857    Z=              0.0000  Tot=              0.4010
 Quadrupole moment (field-independent basis, Debye-Ang):
   XX=            -24.4972   YY=            -37.2014   ZZ=            -21.3303
   XY=             -2.4355   XZ=              0.0000   YZ=              0.0000

 19\CCSD(T)=-300.2096749\RMSD=2.951e-09\PG=CS [SG(O4)]\\@
 Normal termination of Gaussian 16 at Sat Feb 17 23:12:48 2024.
