 Gaussian 16, Revision A.03,
 Gaussian 16:  ES64L-G16RevA.03 25-Dec-2016

 -----------------------------------------------
 #p ROCCSD(T,MaxCyc=200)/cc-pVTZ SCF(MaxCyc=200)
 -----------------------------------------------

 --------
 O2_O2_41
 --------
 Symbolic Z-matrix:
 Charge = -1 Multiplicity = 4

                         Standard orientation:
 ---------------------------------------------------------------------
 Center     Atomic      Atomic             Coordinates (Angstroms)
 Number     Number       Type             X           Y           Z
 ---------------------------------------------------------------------
      1          8           0       -0.870000   -1.050000    0.000000
      2          8           0        0.290000   -1.050000    0.000000
      3          8           0        0.290000    0.470000    0.000000
      4          8           0        0.290000    1.630000    0.000000
 ---------------------------------------------------------------------

 SCF Done:  E(ROHF) =  -299.079132572     A.U. after   24 cycles
 E2 =    -0.9239118901D+00 EUMP2 =    -0.30000304446232D+03
 CCSD(T)
 CCSD(T)= -0.30004393203D+03

 The electronic state is 4-A".
 Alpha  occ. eigenvalues --  -20.50065 -20.40163 -20.28938 -20.28235  -1.50870
 Alpha  occ. eigenvalues --   -1.32755  -0.95485  -0.81015  -0.59122  -0.57806
 Alpha  occ. eigenvalues --   -0.52700  -0.44401  -0.40365  -0.31409  -0.24237
 Alpha  occ. eigenvalues --   -0.19759  -0.09406  -0.06691
 Alpha virt. eigenvalues --    0.63262   0.74972   0.85363   0.91640   0.93241
 Alpha virt. eigenvalues --    0.98689   1.01067   1.02175   1.04095   1.09918
 Alpha virt. eigenvalues --    1.13936   1.17112   1.18133   1.26388   1.28390

 Mulliken charges and spin densities:
               1          2
     1  O   -0.276224   0.660794
     2  O    0.097723   1.155174
     3  O   -0.330406   0.624318
     4  O   -0.491093   0.559715
 Sum of Mulliken charges =  -1.00000   3.00000

 Dipole moment (field-independent basis, Debye):
    X=              0.1676    Y=             -3.1525    Z=              0.0000  Tot=              3.1569
 Quadrupole moment (field-independent basis, Debye-Ang):
   XX=            -23.6348   YY=            -32.6451   ZZ=            -22.1023
   XY=             -2.9147   XZ=              0.0000   YZ=              0.0000

 5\CCSD(T)=-300.043932\RMSD=3.052e-09\PG=CS [SG(O4)]\\@
 Normal termination of Gaussian 16 at Sat Feb 17 21:21:12 2024.
