 Gaussian 16, Revision A.03,
 Gaussian 16:  ES64L-G16RevA.03 25-Dec-2016

 -----------------------------------------------
 #p ROCCSD(T,MaxCyc=200)/cc-pVTZ SCF(MaxCyc=200)
 -----------------------------------------------

 ---------
 O2_O2_124
 ---------
 Symbolic Z-matrix:
 Charge = -1 Multiplicity = 4

                         Standard orientation:
 ---------------------------------------------------------------------
 Center     Atomic      Atomic             Coordinates (Angstroms)
 Number     Number       Type             X           Y           Z
 ---------------------------------------------------------------------
      1          8           0        0.615183   -2.225183    0.000000
      2          8           0       -0.205061   -1.404939    0.000000
      3          8           0       -0.205061    1.235061   -0.000000
      4          8           0       -0.205061    2.395061   -0.000000
 ---------------------------------------------------------------------

 SCF Done:  E(ROHF) =  -299.229690556     A.U. after   22 cycles
 E2 =    -0.9643691251D+00 EUMP2 =    -0.30019405968157D+03
 CCSD(T)
 CCSD(T)= -0.30020513658D+03

 The electronic state is 4-A".
 Alpha  occ. eigenvalues --  -20.43287 -20.43093 -20.41545 -20.41296  -1.44207
 Alpha  occ. eigenvalues --   -1.43911  -0.87345  -0.86054  -0.54623  -0.54326
 Alpha  occ. eigenvalues --   -0.52586  -0.52166  -0.49660  -0.47412  -0.21478
 Alpha  occ. eigenvalues --   -0.20954  -0.18922  -0.18139
 Alpha virt. eigenvalues --    0.64706   0.69929   0.89107   0.90525   0.91310
 Alpha virt. eigenvalues --    0.94711   0.94966   0.99178   1.00985   1.04590
 Alpha virt. eigenvalues --    1.06790   1.08605   1.11537   1.12159   1.13370

 Mulliken charges and spin densities:
               1          2
     1  O   -0.305118   0.687043
     2  O   -0.196900   0.811333
     3  O   -0.189708   0.812835
     4  O   -0.308273   0.688789
 Sum of Mulliken charges =  -1.00000   3.00000

 Dipole moment (field-independent basis, Debye):
    X=             -0.2007    Y=             -0.0548    Z=             -0.0000  Tot=              0.2081
 Quadrupole moment (field-independent basis, Debye-Ang):
   XX=            -22.6673   YY=            -42.7827   ZZ=            -22.4901
   XY=              3.3415   XZ=             -0.0000   YZ=              0.0000

 5111\CCSD=-300.1672478\CCSD(T)=-300.2051366\RMSD=3.507e-09\PG=CS [SG(O
 Normal termination of Gaussian 16 at Sat Feb 17 23:29:45 2024.
