 Gaussian 16, Revision A.03,
 Gaussian 16:  ES64L-G16RevA.03 25-Dec-2016

 -----------------------------------------------
 #p ROCCSD(T,MaxCyc=200)/cc-pVTZ SCF(MaxCyc=200)
 -----------------------------------------------

 ---------
 O2_O2_279
 ---------
 Symbolic Z-matrix:
 Charge = -1 Multiplicity = 4

                         Standard orientation:
 ---------------------------------------------------------------------
 Center     Atomic      Atomic             Coordinates (Angstroms)
 Number     Number       Type             X           Y           Z
 ---------------------------------------------------------------------
      1          8           0        0.000000    0.000000    3.520000
      2          8           0        0.000000    0.000000    2.360000
      3          8           0        0.000000    0.000000   -2.360000
      4          8           0        0.000000    0.000000   -3.520000
 ---------------------------------------------------------------------

 SCF Done:  E(ROHF) =  -299.223883385     A.U. after   13 cycles
 E2 =    -0.9657075090D+00 EUMP2 =    -0.30018959089413D+03
 CCSD(T)
 CCSD(T)= -0.30019693453D+03

 Unable to determine electronic state:  partially filled degenerate orbitals.
 Alpha  occ. eigenvalues --  -20.45159 -20.45159 -20.44525 -20.44525  -1.46554
 Alpha  occ. eigenvalues --   -1.46554  -0.89280  -0.89275  -0.56940  -0.56939
 Alpha  occ. eigenvalues --   -0.54902  -0.54902  -0.51263  -0.51235  -0.23831
 Alpha  occ. eigenvalues --   -0.23825  -0.21234  -0.21096
 Alpha virt. eigenvalues --    0.61743   0.64066   0.89781   0.89820   0.91035
 Alpha virt. eigenvalues --    0.91071   0.92512   0.93921   1.00987   1.01138
 Alpha virt. eigenvalues --    1.02289   1.02311   1.03089   1.04276   1.10778

 Mulliken charges and spin densities:
               1          2
     1  O   -0.275170   0.723005
     2  O   -0.224830   0.776995
     3  O   -0.224830   0.776995
     4  O   -0.275170   0.723005
 Sum of Mulliken charges =  -1.00000   3.00000

 Dipole moment (field-independent basis, Debye):
    X=             -0.0000    Y=              0.0000    Z=              0.0000  Tot=              0.0000
 Quadrupole moment (field-independent basis, Debye-Ang):
   XX=            -22.4152   YY=            -21.3001   ZZ=            -69.0141
   XY=              0.0000   XZ=              0.0000   YZ=              0.0000

 Normal termination of Gaussian 16 at Sun Feb 18 01:32:47 2024.
