 Gaussian 16, Revision A.03,
 Gaussian 16:  ES64L-G16RevA.03 25-Dec-2016

 -----------------------------------------------
 #p ROCCSD(T,MaxCyc=200)/cc-pVTZ SCF(MaxCyc=200)
 -----------------------------------------------

 ---------
 O2_O2_175
 ---------
 Symbolic Z-matrix:
 Charge = -1 Multiplicity = 4

                         Standard orientation:
 ---------------------------------------------------------------------
 Center     Atomic      Atomic             Coordinates (Angstroms)
 Number     Number       Type             X           Y           Z
 ---------------------------------------------------------------------
      1          8           0        0.615183   -2.565183    0.000000
      2          8           0       -0.205061   -1.744939    0.000000
      3          8           0       -0.205061    1.575062   -0.000000
      4          8           0       -0.205061    2.735060   -0.000000
 ---------------------------------------------------------------------

 SCF Done:  E(ROHF) =  -299.226311029     A.U. after   22 cycles
 E2 =    -0.9647411685D+00 EUMP2 =    -0.30019105219707D+03
 CCSD(T)
 CCSD(T)= -0.30020036356D+03

 The electronic state is 4-A".
 Alpha  occ. eigenvalues --  -20.43911 -20.43909 -20.42834 -20.42732  -1.45066
 Alpha  occ. eigenvalues --   -1.45047  -0.87859  -0.87606  -0.55456  -0.55404
 Alpha  occ. eigenvalues --   -0.53435  -0.53361  -0.49970  -0.49397  -0.22345
 Alpha  occ. eigenvalues --   -0.22231  -0.19677  -0.19570
 Alpha virt. eigenvalues --    0.60374   0.68217   0.87564   0.90682   0.91606
 Alpha virt. eigenvalues --    0.92750   0.93169   0.97828   1.01644   1.02230
 Alpha virt. eigenvalues --    1.03564   1.05328   1.06474   1.10916   1.12186

 Mulliken charges and spin densities:
               1          2
     1  O   -0.286228   0.709376
     2  O   -0.212620   0.791009
     3  O   -0.209568   0.796325
     4  O   -0.291584   0.703290
 Sum of Mulliken charges =  -1.00000   3.00000

 Dipole moment (field-independent basis, Debye):
    X=             -0.1325    Y=             -0.1062    Z=             -0.0000  Tot=              0.1698
 Quadrupole moment (field-independent basis, Debye-Ang):
   XX=            -22.6087   YY=            -48.8997   ZZ=            -22.4448
   XY=              3.5581   XZ=             -0.0000   YZ=              0.0000

 884\CCSD=-300.1626608\CCSD(T)=-300.2003636\RMSD=7.074e-09\PG=CS [SG(O4
 Normal termination of Gaussian 16 at Sun Feb 18 00:26:13 2024.
