 Gaussian 16, Revision A.03,
 Gaussian 16:  ES64L-G16RevA.03 25-Dec-2016

 -----------------------------------------------
 #p ROCCSD(T,MaxCyc=200)/cc-pVTZ SCF(MaxCyc=200)
 -----------------------------------------------

 --------
 O2_O2_84
 --------
 Symbolic Z-matrix:
 Charge = -1 Multiplicity = 4

                         Standard orientation:
 ---------------------------------------------------------------------
 Center     Atomic      Atomic             Coordinates (Angstroms)
 Number     Number       Type             X           Y           Z
 ---------------------------------------------------------------------
      1          8           0        0.000000    0.000000    2.220000
      2          8           0        0.000000    0.000000    1.060000
      3          8           0        0.000000    0.000000   -1.060000
      4          8           0        0.000000    0.000000   -2.220000
 ---------------------------------------------------------------------

 SCF Done:  E(ROHF) =  -299.225709649     A.U. after   13 cycles
 E2 =    -0.9639371635D+00 EUMP2 =    -0.30018964681296D+03
 CCSD(T)
 CCSD(T)= -0.30020265265D+03

 Unable to determine electronic state:  an orbital has unidentified symmetry.
 Alpha  occ. eigenvalues --  -20.42301 -20.42299 -20.40080 -20.40080  -1.43481
 Alpha  occ. eigenvalues --   -1.42958  -0.88410  -0.83564  -0.54080  -0.52998
 Alpha  occ. eigenvalues --   -0.52065  -0.51195  -0.50941  -0.43340  -0.21561
 Alpha  occ. eigenvalues --   -0.19036  -0.18765  -0.16275
 Alpha virt. eigenvalues --    0.68956   0.71529   0.89471   0.90657   0.94777
 Alpha virt. eigenvalues --    0.96166   0.97790   1.00183   1.01554   1.05502
 Alpha virt. eigenvalues --    1.11569   1.13143   1.17098   1.17651   1.18949

 Mulliken charges and spin densities:
               1          2
     1  O   -0.340484   0.674516
     2  O   -0.159516   0.825484
     3  O   -0.159516   0.825484
     4  O   -0.340484   0.674516
 Sum of Mulliken charges =  -1.00000   3.00000

 Dipole moment (field-independent basis, Debye):
    X=             -0.0000    Y=              0.0000    Z=              0.0000  Tot=              0.0000
 Quadrupole moment (field-independent basis, Debye-Ang):
   XX=            -21.3263   YY=            -22.5353   ZZ=            -41.8460
   XY=              0.0000   XZ=              0.0000   YZ=              0.0000

 096\PMP2-0=-300.1896468\MP4SDQ=-300.1683178\CCSD=-300.1646901\CCSD(T)=
 Normal termination of Gaussian 16 at Sat Feb 17 22:30:32 2024.
