 Gaussian 16, Revision A.03,
 Gaussian 16:  ES64L-G16RevA.03 25-Dec-2016

 -----------------------------------------------
 #p ROCCSD(T,MaxCyc=200)/cc-pVTZ SCF(MaxCyc=200)
 -----------------------------------------------

 ---------
 O2_O2_243
 ---------
 Symbolic Z-matrix:
 Charge = -1 Multiplicity = 4

                         Standard orientation:
 ---------------------------------------------------------------------
 Center     Atomic      Atomic             Coordinates (Angstroms)
 Number     Number       Type             X           Y           Z
 ---------------------------------------------------------------------
      1          8           0        0.000000    0.000000    3.280000
      2          8           0        0.000000    0.000000    2.120000
      3          8           0        0.000000    0.000000   -2.120000
      4          8           0        0.000000    0.000000   -3.280000
 ---------------------------------------------------------------------

 SCF Done:  E(ROHF) =  -299.223778467     A.U. after   13 cycles
 E2 =    -0.9653291830D+00 EUMP2 =    -0.30018910764952D+03
 CCSD(T)
 CCSD(T)= -0.30019694713D+03

 Unable to determine electronic state:  partially filled degenerate orbitals.
 Alpha  occ. eigenvalues --  -20.44787 -20.44787 -20.44044 -20.44044  -1.46138
 Alpha  occ. eigenvalues --   -1.46137  -0.88858  -0.88835  -0.56526  -0.56521
 Alpha  occ. eigenvalues --   -0.54489  -0.54485  -0.50857  -0.50765  -0.23416
 Alpha  occ. eigenvalues --   -0.23391  -0.20823  -0.20665
 Alpha virt. eigenvalues --    0.60276   0.66160   0.90115   0.90281   0.91370
 Alpha virt. eigenvalues --    0.91411   0.91532   0.95795   1.01173   1.01798
 Alpha virt. eigenvalues --    1.02476   1.02896   1.02974   1.06235   1.11173

 Mulliken charges and spin densities:
               1          2
     1  O   -0.279628   0.718067
     2  O   -0.220372   0.781933
     3  O   -0.220372   0.781933
     4  O   -0.279628   0.718067
 Sum of Mulliken charges =  -1.00000   3.00000

 Dipole moment (field-independent basis, Debye):
    X=             -0.0000    Y=             -0.0000    Z=             -0.0000  Tot=              0.0000
 Quadrupole moment (field-independent basis, Debye-Ang):
   XX=            -22.4148   YY=            -21.3018   ZZ=            -62.7016
   XY=              0.0000   XZ=              0.0000   YZ=              0.0000

 785\PMP2-0=-300.1891076\MP4SDQ=-300.1622179\CCSD=-300.1593686\CCSD(T)=
 Normal termination of Gaussian 16 at Sun Feb 18 01:14:06 2024.
