 Gaussian 16, Revision A.03,
 Gaussian 16:  ES64L-G16RevA.03 25-Dec-2016

 -----------------------------------------------
 #p ROCCSD(T,MaxCyc=200)/cc-pVTZ SCF(MaxCyc=200)
 -----------------------------------------------

 --------
 O2_O2_99
 --------
 Symbolic Z-matrix:
 Charge = -1 Multiplicity = 4

                         Standard orientation:
 ---------------------------------------------------------------------
 Center     Atomic      Atomic             Coordinates (Angstroms)
 Number     Number       Type             X           Y           Z
 ---------------------------------------------------------------------
      1          8           0        0.000000    0.000000    2.320000
      2          8           0        0.000000    0.000000    1.160000
      3          8           0        0.000000    0.000000   -1.160000
      4          8           0        0.000000    0.000000   -2.320000
 ---------------------------------------------------------------------

 SCF Done:  E(ROHF) =  -299.230423778     A.U. after   13 cycles
 E2 =    -0.9640943461D+00 EUMP2 =    -0.30019451812371D+03
 CCSD(T)
 CCSD(T)= -0.30020660721D+03

 Unable to determine electronic state:  an orbital has unidentified symmetry.
 Alpha  occ. eigenvalues --  -20.42815 -20.42814 -20.40748 -20.40748  -1.43798
 Alpha  occ. eigenvalues --   -1.43512  -0.87773  -0.84788  -0.54322  -0.53656
 Alpha  occ. eigenvalues --   -0.52285  -0.51591  -0.50546  -0.45298  -0.21619
 Alpha  occ. eigenvalues --   -0.19929  -0.18829  -0.17181
 Alpha virt. eigenvalues --    0.67740   0.71460   0.89109   0.90301   0.94219
 Alpha virt. eigenvalues --    0.95275   0.95564   0.99489   1.00799   1.04563
 Alpha virt. eigenvalues --    1.11498   1.12742   1.13611   1.15337   1.16674

 Mulliken charges and spin densities:
               1          2
     1  O   -0.328691   0.679004
     2  O   -0.171309   0.820996
     3  O   -0.171309   0.820996
     4  O   -0.328691   0.679004
 Sum of Mulliken charges =  -1.00000   3.00000

 Dipole moment (field-independent basis, Debye):
    X=             -0.0000    Y=             -0.0000    Z=              0.0000  Tot=              0.0000
 Quadrupole moment (field-independent basis, Debye-Ang):
   XX=            -21.3277   YY=            -22.5250   ZZ=            -43.2330
   XY=              0.0000   XZ=              0.0000   YZ=              0.0000

 238\PMP2-0=-300.1945181\MP4SDQ=-300.1721958\CCSD=-300.1687224\CCSD(T)=
 Normal termination of Gaussian 16 at Sat Feb 17 22:53:24 2024.
