 Gaussian 16, Revision A.03,
 Gaussian 16:  ES64L-G16RevA.03 25-Dec-2016

 -----------------------------------------------
 #p ROCCSD(T,MaxCyc=200)/cc-pVTZ SCF(MaxCyc=200)
 -----------------------------------------------

 --------
 O2_O2_71
 --------
 Symbolic Z-matrix:
 Charge = -1 Multiplicity = 4

                         Standard orientation:
 ---------------------------------------------------------------------
 Center     Atomic      Atomic             Coordinates (Angstroms)
 Number     Number       Type             X           Y           Z
 ---------------------------------------------------------------------
      1          8           0       -0.870000   -1.250000    0.000000
      2          8           0        0.290000   -1.250000    0.000000
      3          8           0        0.290000    0.670000    0.000000
      4          8           0        0.290000    1.830000    0.000000
 ---------------------------------------------------------------------

 SCF Done:  E(ROHF) =  -299.203780381     A.U. after   24 cycles
 E2 =    -0.9637032293D+00 EUMP2 =    -0.30016748361057D+03
 CCSD(T)
 CCSD(T)= -0.30018198295D+03

 The electronic state is 4-A'.
 Alpha  occ. eigenvalues --  -20.40364 -20.39733 -20.39429 -20.37866  -1.42795
 Alpha  occ. eigenvalues --   -1.40730  -0.87199  -0.82849  -0.54184  -0.53388
 Alpha  occ. eigenvalues --   -0.50699  -0.50147  -0.46669  -0.40424  -0.19883
 Alpha  occ. eigenvalues --   -0.17754  -0.17644  -0.13880
 Alpha virt. eigenvalues --    0.66283   0.71988   0.90508   0.93689   0.95488
 Alpha virt. eigenvalues --    0.96529   0.97557   1.04096   1.04676   1.05291
 Alpha virt. eigenvalues --    1.06561   1.11583   1.14925   1.20576   1.25137

 Mulliken charges and spin densities:
               1          2
     1  O   -0.287487   0.713356
     2  O   -0.214577   0.782648
     3  O   -0.139505   0.837645
     4  O   -0.358431   0.666351
 Sum of Mulliken charges =  -1.00000   3.00000

 Dipole moment (field-independent basis, Debye):
    X=              0.2520    Y=             -0.3927    Z=              0.0000  Tot=              0.4666
 Quadrupole moment (field-independent basis, Debye-Ang):
   XX=            -24.5035   YY=            -34.1761   ZZ=            -21.3164
   XY=             -2.1362   XZ=              0.0000   YZ=              0.0000

 11\CCSD(T)=-300.1819829\RMSD=2.755e-09\PG=CS [SG(O4)]\\@
 Normal termination of Gaussian 16 at Sat Feb 17 22:10:46 2024.
