 Gaussian 16, Revision A.03,
 Gaussian 16:  ES64L-G16RevA.03 25-Dec-2016

 -----------------------------------------------
 #p ROCCSD(T,MaxCyc=200)/cc-pVTZ SCF(MaxCyc=200)
 -----------------------------------------------

 --------
 O2_O2_28
 --------
 Symbolic Z-matrix:
 Charge = -1 Multiplicity = 4

                         Standard orientation:
 ---------------------------------------------------------------------
 Center     Atomic      Atomic             Coordinates (Angstroms)
 Number     Number       Type             X           Y           Z
 ---------------------------------------------------------------------
      1          8           0        0.615183   -1.585183   -0.000000
      2          8           0       -0.205061   -0.764939   -0.000000
      3          8           0       -0.205061    0.595061    0.000000
      4          8           0       -0.205061    1.755061    0.000000
 ---------------------------------------------------------------------

 SCF Done:  E(ROHF) =  -299.005483189     A.U. after   19 cycles
 E2 =    -0.9421567784D+00 EUMP2 =    -0.29994763996690D+03
 CCSD(T)
 CCSD(T)= -0.29997993858D+03

 The electronic state is 4-A".
 Alpha  occ. eigenvalues --  -20.47261 -20.36366 -20.34516 -20.34105  -1.49355
 Alpha  occ. eigenvalues --   -1.38616  -1.05850  -0.74954  -0.59173  -0.58631
 Alpha  occ. eigenvalues --   -0.54794  -0.46793  -0.45659  -0.27919  -0.21793
 Alpha  occ. eigenvalues --   -0.17484  -0.10140  -0.09850
 Alpha virt. eigenvalues --    0.70576   0.74738   0.91526   0.92011   0.92584
 Alpha virt. eigenvalues --    0.97384   1.00183   1.01874   1.04424   1.07863
 Alpha virt. eigenvalues --    1.12134   1.12908   1.19414   1.24121   1.30231

 Mulliken charges and spin densities:
               1          2
     1  O   -0.494002   0.480705
     2  O    0.139246   1.124465
     3  O   -0.247509   0.697723
     4  O   -0.397735   0.697107
 Sum of Mulliken charges =  -1.00000   3.00000

 Dipole moment (field-independent basis, Debye):
    X=             -0.6857    Y=             -0.5399    Z=             -0.0000  Tot=              0.8728
 Quadrupole moment (field-independent basis, Debye-Ang):
   XX=            -23.2050   YY=            -36.8776   ZZ=            -22.0093
   XY=              3.5361   XZ=              0.0000   YZ=             -0.0000

 \CCSD=-299.9406345\CCSD(T)=-299.9799386\RMSD=5.470e-09\PG=CS [SG(O4)]\
 Normal termination of Gaussian 16 at Sat Feb 17 20:57:57 2024.
