 Gaussian 16, Revision A.03,
 Gaussian 16:  ES64L-G16RevA.03 25-Dec-2016

 -----------------------------------------------
 #p ROCCSD(T,MaxCyc=200)/cc-pVTZ SCF(MaxCyc=200)
 -----------------------------------------------

 --------
 O2_O2_45
 --------
 Symbolic Z-matrix:
 Charge = -1 Multiplicity = 4

                         Standard orientation:
 ---------------------------------------------------------------------
 Center     Atomic      Atomic             Coordinates (Angstroms)
 Number     Number       Type             X           Y           Z
 ---------------------------------------------------------------------
      1          8           0        0.000000    0.000000    1.960000
      2          8           0        0.000000    0.000000    0.800000
      3          8           0        0.000000    0.000000   -0.800000
      4          8           0        0.000000    0.000000   -1.960000
 ---------------------------------------------------------------------

 SCF Done:  E(ROHF) =  -299.126019210     A.U. after   13 cycles
 E2 =    -0.9664243527D+00 EUMP2 =    -0.30009244356268D+03
 CCSD(T)
 CCSD(T)= -0.30010883329D+03

 Unable to determine electronic state:  an orbital has unidentified symmetry.
 Alpha  occ. eigenvalues --  -20.39336 -20.39331 -20.37487 -20.37487  -1.43117
 Alpha  occ. eigenvalues --   -1.40517  -0.94939  -0.78022  -0.54213  -0.54114
 Alpha  occ. eigenvalues --   -0.52338  -0.50147  -0.48105  -0.31717  -0.22344
 Alpha  occ. eigenvalues --   -0.19435  -0.14865  -0.12266
 Alpha virt. eigenvalues --    0.70991   0.71919   0.91755   0.92893   0.96365
 Alpha virt. eigenvalues --    0.98049   0.98789   1.04339   1.04418   1.05855
 Alpha virt. eigenvalues --    1.12652   1.16948   1.23004   1.24011   1.29453

 Mulliken charges and spin densities:
               1          2
     1  O   -0.358198   0.692691
     2  O   -0.141802   0.807309
     3  O   -0.141802   0.807309
     4  O   -0.358198   0.692691
 Sum of Mulliken charges =  -1.00000   3.00000

 Dipole moment (field-independent basis, Debye):
    X=             -0.0000    Y=             -0.0000    Z=             -0.0000  Tot=              0.0000
 Quadrupole moment (field-independent basis, Debye-Ang):
   XX=            -22.4265   YY=            -21.2306   ZZ=            -39.1235
   XY=              0.0000   XZ=              0.0000   YZ=              0.0000

 92\PMP2-0=-300.0924436\MP4SDQ=-300.0741148\CCSD=-300.0699943\CCSD(T)=-
 Normal termination of Gaussian 16 at Sat Feb 17 21:27:22 2024.
