 Gaussian 16, Revision A.03,
 Gaussian 16:  ES64L-G16RevA.03 25-Dec-2016

 -----------------------------------------------
 #p ROCCSD(T,MaxCyc=200)/cc-pVTZ SCF(MaxCyc=200)
 -----------------------------------------------

 ---------
 O2_O2_264
 ---------
 Symbolic Z-matrix:
 Charge = -1 Multiplicity = 4

                         Standard orientation:
 ---------------------------------------------------------------------
 Center     Atomic      Atomic             Coordinates (Angstroms)
 Number     Number       Type             X           Y           Z
 ---------------------------------------------------------------------
      1          8           0        0.000000    0.000000    3.420000
      2          8           0        0.000000    0.000000    2.260000
      3          8           0        0.000000    0.000000   -2.260000
      4          8           0        0.000000    0.000000   -3.420000
 ---------------------------------------------------------------------

 SCF Done:  E(ROHF) =  -299.223857067     A.U. after   13 cycles
 E2 =    -0.9655512661D+00 EUMP2 =    -0.30018940833275D+03
 CCSD(T)
 CCSD(T)= -0.30019694490D+03

 Unable to determine electronic state:  partially filled degenerate orbitals.
 Alpha  occ. eigenvalues --  -20.45013 -20.45013 -20.44336 -20.44336  -1.46389
 Alpha  occ. eigenvalues --   -1.46389  -0.89112  -0.89103  -0.56776  -0.56774
 Alpha  occ. eigenvalues --   -0.54738  -0.54738  -0.51100  -0.51053  -0.23666
 Alpha  occ. eigenvalues --   -0.23655  -0.21071  -0.20927
 Alpha virt. eigenvalues --    0.61270   0.64830   0.89922   0.89995   0.91176
 Alpha virt. eigenvalues --    0.91246   0.92206   0.94557   1.01089   1.01369
 Alpha virt. eigenvalues --    1.02392   1.02543   1.03009   1.04891   1.10936

 Mulliken charges and spin densities:
               1          2
     1  O   -0.276923   0.721092
     2  O   -0.223077   0.778908
     3  O   -0.223077   0.778908
     4  O   -0.276923   0.721092
 Sum of Mulliken charges =  -1.00000   3.00000

 Dipole moment (field-independent basis, Debye):
    X=             -0.0000    Y=             -0.0000    Z=              0.0000  Tot=              0.0000
 Quadrupole moment (field-independent basis, Debye-Ang):
   XX=            -21.3007   YY=            -22.4153   ZZ=            -66.3125
   XY=              0.0000   XZ=              0.0000   YZ=              0.0000

 Normal termination of Gaussian 16 at Sun Feb 18 01:25:07 2024.
