 Gaussian 16, Revision A.03,
 Gaussian 16:  ES64L-G16RevA.03 25-Dec-2016

 -----------------------------------------------
 #p ROCCSD(T,MaxCyc=200)/cc-pVTZ SCF(MaxCyc=200)
 -----------------------------------------------

 ---------
 O2_O2_181
 ---------
 Symbolic Z-matrix:
 Charge = -1 Multiplicity = 4

                         Standard orientation:
 ---------------------------------------------------------------------
 Center     Atomic      Atomic             Coordinates (Angstroms)
 Number     Number       Type             X           Y           Z
 ---------------------------------------------------------------------
      1          8           0        0.615183   -2.605183   -0.000000
      2          8           0       -0.205061   -1.784939    0.000000
      3          8           0       -0.205061    1.615061    0.000000
      4          8           0       -0.205061    2.775061    0.000000
 ---------------------------------------------------------------------

 SCF Done:  E(ROHF) =  -299.226016258     A.U. after   18 cycles
 E2 =    -0.9647765692D+00 EUMP2 =    -0.30019079282718D+03
 CCSD(T)
 CCSD(T)= -0.30019994312D+03

 The electronic state is 4-A".
 Alpha  occ. eigenvalues --  -20.43986 -20.43985 -20.42965 -20.42855  -1.45166
 Alpha  occ. eigenvalues --   -1.45147  -0.87945  -0.87733  -0.55551  -0.55509
 Alpha  occ. eigenvalues --   -0.53533  -0.53468  -0.50037  -0.49549  -0.22442
 Alpha  occ. eigenvalues --   -0.22344  -0.19772  -0.19690
 Alpha virt. eigenvalues --    0.60151   0.68019   0.87666   0.90718   0.91656
 Alpha virt. eigenvalues --    0.92580   0.92989   0.97684   1.01783   1.02077
 Alpha virt. eigenvalues --    1.03269   1.05052   1.05999   1.10865   1.12094

 Mulliken charges and spin densities:
               1          2
     1  O   -0.284852   0.711076
     2  O   -0.213967   0.789347
     3  O   -0.210789   0.794796
     4  O   -0.290392   0.704781
 Sum of Mulliken charges =  -1.00000   3.00000

 Dipole moment (field-independent basis, Debye):
    X=             -0.1273    Y=             -0.1056    Z=              0.0000  Tot=              0.1654
 Quadrupole moment (field-independent basis, Debye-Ang):
   XX=            -22.6046   YY=            -49.7023   ZZ=            -22.4412
   XY=              3.5874   XZ=              0.0000   YZ=             -0.0000

 5269\CCSD=-300.1622632\CCSD(T)=-300.1999431\RMSD=5.586e-09\PG=CS [SG(O
 Normal termination of Gaussian 16 at Sun Feb 18 00:32:22 2024.
