 Gaussian 16, Revision A.03,
 Gaussian 16:  ES64L-G16RevA.03 25-Dec-2016

 -----------------------------------------------
 #p ROCCSD(T,MaxCyc=200)/cc-pVTZ SCF(MaxCyc=200)
 -----------------------------------------------

 --------
 O2_O2_20
 --------
 Symbolic Z-matrix:
 Charge = -1 Multiplicity = 4

                         Standard orientation:
 ---------------------------------------------------------------------
 Center     Atomic      Atomic             Coordinates (Angstroms)
 Number     Number       Type             X           Y           Z
 ---------------------------------------------------------------------
      1          8           0       -0.870000   -0.910000    0.000000
      2          8           0        0.290000   -0.910000    0.000000
      3          8           0        0.290000    0.330000    0.000000
      4          8           0        0.290000    1.490000    0.000000
 ---------------------------------------------------------------------

 SCF Done:  E(ROHF) =  -298.839286436     A.U. after   24 cycles
 E2 =    -0.9576508502D+00 EUMP2 =    -0.29979693728579D+03
 CCSD(T)
 CCSD(T)= -0.29982574346D+03

 The electronic state is 4-A".
 Alpha  occ. eigenvalues --  -20.47674 -20.42019 -20.31582 -20.28412  -1.59442
 Alpha  occ. eigenvalues --   -1.37220  -1.03953  -0.80267  -0.63393  -0.60494
 Alpha  occ. eigenvalues --   -0.54671  -0.44372  -0.44015  -0.24276  -0.18226
 Alpha  occ. eigenvalues --   -0.14557  -0.11481  -0.02843
 Alpha virt. eigenvalues --    0.65560   0.71663   0.84184   0.91723   0.94370
 Alpha virt. eigenvalues --    0.97603   1.01805   1.01879   1.06673   1.10569
 Alpha virt. eigenvalues --    1.14600   1.14722   1.15241   1.25380   1.32741

 Mulliken charges and spin densities:
               1          2
     1  O   -0.593996   0.307943
     2  O    0.123188   0.972012
     3  O   -0.037656   1.068238
     4  O   -0.491536   0.651807
 Sum of Mulliken charges =  -1.00000   3.00000

 Dipole moment (field-independent basis, Debye):
    X=              1.6772    Y=             -1.1635    Z=              0.0000  Tot=              2.0412
 Quadrupole moment (field-independent basis, Debye-Ang):
   XX=            -24.7962   YY=            -32.4145   ZZ=            -21.8426
   XY=             -3.5894   XZ=              0.0000   YZ=              0.0000

 8\CCSD(T)=-299.8257435\RMSD=3.578e-09\PG=CS [SG(O4)]\\@
 Normal termination of Gaussian 16 at Sat Feb 17 20:45:18 2024.
