 Gaussian 16, Revision A.03,
 Gaussian 16:  ES64L-G16RevA.03 25-Dec-2016

 -----------------------------------------------
 #p ROCCSD(T,MaxCyc=200)/cc-pVTZ SCF(MaxCyc=200)
 -----------------------------------------------

 --------
 O2_O2_39
 --------
 Symbolic Z-matrix:
 Charge = -1 Multiplicity = 4

                         Standard orientation:
 ---------------------------------------------------------------------
 Center     Atomic      Atomic             Coordinates (Angstroms)
 Number     Number       Type             X           Y           Z
 ---------------------------------------------------------------------
      1          8           0        0.000000    0.000000    1.920000
      2          8           0        0.000000    0.000000    0.760000
      3          8           0        0.000000    0.000000   -0.760000
      4          8           0        0.000000    0.000000   -1.920000
 ---------------------------------------------------------------------

 SCF Done:  E(ROHF) =  -299.081250610     A.U. after   13 cycles
 E2 =    -0.9680589330D+00 EUMP2 =    -0.30004930954255D+03
 CCSD(T)
 CCSD(T)= -0.30006644079D+03

 Unable to determine electronic state:  an orbital has unidentified symmetry.
 Alpha  occ. eigenvalues --  -20.38615 -20.38610 -20.36909 -20.36909  -1.43336
 Alpha  occ. eigenvalues --   -1.39945  -0.97180  -0.76811  -0.54758  -0.54388
 Alpha  occ. eigenvalues --   -0.52711  -0.49513  -0.47446  -0.28219  -0.22723
 Alpha  occ. eigenvalues --   -0.19741  -0.13819  -0.11305
 Alpha virt. eigenvalues --    0.71074   0.72122   0.92073   0.93203   0.96613
 Alpha virt. eigenvalues --    0.97790   0.98391   1.03312   1.05287   1.06802
 Alpha virt. eigenvalues --    1.12624   1.19295   1.23735   1.24657   1.31478

 Mulliken charges and spin densities:
               1          2
     1  O   -0.356565   0.705555
     2  O   -0.143435   0.794445
     3  O   -0.143435   0.794445
     4  O   -0.356565   0.705555
 Sum of Mulliken charges =  -1.00000   3.00000

 Dipole moment (field-independent basis, Debye):
    X=             -0.0000    Y=             -0.0000    Z=             -0.0000  Tot=              0.0000
 Quadrupole moment (field-independent basis, Debye-Ang):
   XX=            -21.1884   YY=            -22.3736   ZZ=            -38.8640
   XY=              0.0000   XZ=              0.0000   YZ=              0.0000

 506\PMP2-0=-300.0493095\MP4SDQ=-300.0313546\CCSD=-300.0271819\CCSD(T)=
 Normal termination of Gaussian 16 at Sat Feb 17 21:17:42 2024.
