 Gaussian 16, Revision A.03,
 Gaussian 16:  ES64L-G16RevA.03 25-Dec-2016

 -----------------------------------------------
 #p ROCCSD(T,MaxCyc=200)/cc-pVTZ SCF(MaxCyc=200)
 -----------------------------------------------

 --------
 O2_O2_70
 --------
 Symbolic Z-matrix:
 Charge = -1 Multiplicity = 4

                         Standard orientation:
 ---------------------------------------------------------------------
 Center     Atomic      Atomic             Coordinates (Angstroms)
 Number     Number       Type             X           Y           Z
 ---------------------------------------------------------------------
      1          8           0        0.615183   -1.865183   -0.000000
      2          8           0       -0.205061   -1.044939   -0.000000
      3          8           0       -0.205061    0.875061    0.000000
      4          8           0       -0.205061    2.035061    0.000000
 ---------------------------------------------------------------------

 SCF Done:  E(ROHF) =  -299.208554678     A.U. after   25 cycles
 E2 =    -0.9644907330D+00 EUMP2 =    -0.30017304541096D+03
 CCSD(T)
 CCSD(T)= -0.30018766093D+03

 The electronic state is 4-A".
 Alpha  occ. eigenvalues --  -20.42799 -20.41110 -20.40340 -20.37194  -1.43966
 Alpha  occ. eigenvalues --   -1.41436  -0.89795  -0.81968  -0.54772  -0.53728
 Alpha  occ. eigenvalues --   -0.52545  -0.49491  -0.49373  -0.41392  -0.21030
 Alpha  occ. eigenvalues --   -0.19048  -0.17535  -0.14831
 Alpha virt. eigenvalues --    0.68850   0.71714   0.89592   0.91120   0.96256
 Alpha virt. eigenvalues --    0.97195   0.98868   1.02145   1.04047   1.04159
 Alpha virt. eigenvalues --    1.08383   1.12321   1.18047   1.19471   1.22547

 Mulliken charges and spin densities:
               1          2
     1  O   -0.374716   0.607078
     2  O   -0.158521   0.859145
     3  O   -0.134281   0.844075
     4  O   -0.332481   0.689701
 Sum of Mulliken charges =  -1.00000   3.00000

 Dipole moment (field-independent basis, Debye):
    X=             -0.4465    Y=              0.4493    Z=              0.0000  Tot=              0.6334
 Quadrupole moment (field-independent basis, Debye-Ang):
   XX=            -22.8727   YY=            -38.0737   ZZ=            -22.5105
   XY=              3.3410   XZ=              0.0000   YZ=             -0.0000

 8044\CCSD=-300.1492529\CCSD(T)=-300.1876609\RMSD=6.288e-09\PG=CS [SG(O
 Normal termination of Gaussian 16 at Sat Feb 17 22:09:01 2024.
