 Gaussian 16, Revision A.03,
 Gaussian 16:  ES64L-G16RevA.03 25-Dec-2016

 -----------------------------------------------
 #p ROCCSD(T,MaxCyc=200)/cc-pVTZ SCF(MaxCyc=200)
 -----------------------------------------------

 ---------
 O2_O2_282
 ---------
 Symbolic Z-matrix:
 Charge = -1 Multiplicity = 4

                         Standard orientation:
 ---------------------------------------------------------------------
 Center     Atomic      Atomic             Coordinates (Angstroms)
 Number     Number       Type             X           Y           Z
 ---------------------------------------------------------------------
      1          8           0        0.000000    0.000000    3.540000
      2          8           0        0.000000    0.000000    2.380000
      3          8           0        0.000000    0.000000   -2.380000
      4          8           0        0.000000    0.000000   -3.540000
 ---------------------------------------------------------------------

 SCF Done:  E(ROHF) =  -299.223886869     A.U. after   13 cycles
 E2 =    -0.9657381487D+00 EUMP2 =    -0.30018962501734D+03
 CCSD(T)
 CCSD(T)= -0.30019693206D+03

 Unable to determine electronic state:  partially filled degenerate orbitals.
 Alpha  occ. eigenvalues --  -20.45188 -20.45188 -20.44562 -20.44562  -1.46585
 Alpha  occ. eigenvalues --   -1.46585  -0.89312  -0.89308  -0.56972  -0.56970
 Alpha  occ. eigenvalues --   -0.54934  -0.54933  -0.51295  -0.51270  -0.23863
 Alpha  occ. eigenvalues --   -0.23857  -0.21266  -0.21128
 Alpha virt. eigenvalues --    0.61814   0.63934   0.89753   0.89787   0.91007
 Alpha virt. eigenvalues --    0.91038   0.92551   0.93816   1.00964   1.01097
 Alpha virt. eigenvalues --    1.02266   1.02270   1.03100   1.04177   1.10747

 Mulliken charges and spin densities:
               1          2
     1  O   -0.274838   0.723365
     2  O   -0.225162   0.776635
     3  O   -0.225162   0.776635
     4  O   -0.274838   0.723365
 Sum of Mulliken charges =  -1.00000   3.00000

 Dipole moment (field-independent basis, Debye):
    X=             -0.0000    Y=             -0.0000    Z=             -0.0000  Tot=              0.0000
 Quadrupole moment (field-independent basis, Debye-Ang):
   XX=            -22.4151   YY=            -21.2999   ZZ=            -69.5665
   XY=              0.0000   XZ=              0.0000   YZ=              0.0000

 869\PMP2-0=-300.189625\MP4SDQ=-300.1621617\CCSD=-300.1593749\CCSD(T)=-
 Normal termination of Gaussian 16 at Sun Feb 18 01:34:44 2024.
