 Gaussian 16, Revision A.03,
 Gaussian 16:  ES64L-G16RevA.03 25-Dec-2016

 -----------------------------------------------
 #p ROCCSD(T,MaxCyc=200)/cc-pVTZ SCF(MaxCyc=200)
 -----------------------------------------------

 ---------
 O2_O2_267
 ---------
 Symbolic Z-matrix:
 Charge = -1 Multiplicity = 4

                         Standard orientation:
 ---------------------------------------------------------------------
 Center     Atomic      Atomic             Coordinates (Angstroms)
 Number     Number       Type             X           Y           Z
 ---------------------------------------------------------------------
      1          8           0        0.000000    0.000000    3.440000
      2          8           0        0.000000    0.000000    2.280000
      3          8           0        0.000000    0.000000   -2.280000
      4          8           0        0.000000    0.000000   -3.440000
 ---------------------------------------------------------------------

 SCF Done:  E(ROHF) =  -299.223863759     A.U. after   13 cycles
 E2 =    -0.9655828429D+00 EUMP2 =    -0.30018944660219D+03
 CCSD(T)
 CCSD(T)= -0.30019694317D+03

 Unable to determine electronic state:  partially filled degenerate orbitals.
 Alpha  occ. eigenvalues --  -20.45043 -20.45043 -20.44375 -20.44375  -1.46423
 Alpha  occ. eigenvalues --   -1.46423  -0.89147  -0.89138  -0.56810  -0.56808
 Alpha  occ. eigenvalues --   -0.54772  -0.54772  -0.51133  -0.51091  -0.23700
 Alpha  occ. eigenvalues --   -0.23690  -0.21104  -0.20961
 Alpha virt. eigenvalues --    0.61381   0.64664   0.89894   0.89959   0.91148
 Alpha virt. eigenvalues --    0.91209   0.92283   0.94414   1.01071   1.01319
 Alpha virt. eigenvalues --    1.02374   1.02493   1.03027   1.04750   1.10904

 Mulliken charges and spin densities:
               1          2
     1  O   -0.276560   0.721490
     2  O   -0.223440   0.778510
     3  O   -0.223440   0.778510
     4  O   -0.276560   0.721490
 Sum of Mulliken charges =  -1.00000   3.00000

 Dipole moment (field-independent basis, Debye):
    X=             -0.0000    Y=              0.0000    Z=             -0.0000  Tot=              0.0000
 Quadrupole moment (field-independent basis, Debye-Ang):
   XX=            -21.3006   YY=            -22.4153   ZZ=            -66.8447
   XY=              0.0000   XZ=              0.0000   YZ=              0.0000

 Normal termination of Gaussian 16 at Sun Feb 18 01:26:38 2024.
