 Gaussian 16, Revision A.03,
 Gaussian 16:  ES64L-G16RevA.03 25-Dec-2016

 -----------------------------------------------
 #p ROCCSD(T,MaxCyc=200)/cc-pVTZ SCF(MaxCyc=200)
 -----------------------------------------------

 ---------
 O2_O2_104
 ---------
 Symbolic Z-matrix:
 Charge = -1 Multiplicity = 4

                         Standard orientation:
 ---------------------------------------------------------------------
 Center     Atomic      Atomic             Coordinates (Angstroms)
 Number     Number       Type             X           Y           Z
 ---------------------------------------------------------------------
      1          8           0       -0.870000   -1.470000    0.000000
      2          8           0        0.290000   -1.470000    0.000000
      3          8           0        0.290000    0.890000    0.000000
      4          8           0        0.290000    2.050000    0.000000
 ---------------------------------------------------------------------

 SCF Done:  E(ROHF) =  -299.232800048     A.U. after   24 cycles
 E2 =    -0.9634707475D+00 EUMP2 =    -0.30019627079515D+03
 CCSD(T)
 CCSD(T)= -0.30020903442D+03

 The electronic state is 4-A'.
 Alpha  occ. eigenvalues --  -20.41972 -20.41357 -20.41246 -20.39653  -1.43129
 Alpha  occ. eigenvalues --   -1.42533  -0.86284  -0.84944  -0.53699  -0.52726
 Alpha  occ. eigenvalues --   -0.52594  -0.50971  -0.48094  -0.45329  -0.20507
 Alpha  occ. eigenvalues --   -0.19640  -0.18236  -0.16219
 Alpha virt. eigenvalues --    0.65322   0.70371   0.89087   0.92459   0.95421
 Alpha virt. eigenvalues --    0.95810   0.96704   0.99469   1.01147   1.03532
 Alpha virt. eigenvalues --    1.05869   1.09515   1.11417   1.14020   1.21380

 Mulliken charges and spin densities:
               1          2
     1  O   -0.272318   0.726939
     2  O   -0.224349   0.777688
     3  O   -0.170436   0.825632
     4  O   -0.332897   0.669741
 Sum of Mulliken charges =  -1.00000   3.00000

 Dipole moment (field-independent basis, Debye):
    X=              0.1279    Y=             -0.3985    Z=              0.0000  Tot=              0.4185
 Quadrupole moment (field-independent basis, Debye-Ang):
   XX=            -24.5073   YY=            -36.4428   ZZ=            -21.3328
   XY=             -2.3635   XZ=              0.0000   YZ=              0.0000

 Normal termination of Gaussian 16 at Sat Feb 17 23:01:36 2024.
