 Gaussian 16, Revision A.03,
 Gaussian 16:  ES64L-G16RevA.03 25-Dec-2016

 -----------------------------------------------
 #p ROCCSD(T,MaxCyc=200)/cc-pVTZ SCF(MaxCyc=200)
 -----------------------------------------------

 --------
 O2_O2_25
 --------
 Symbolic Z-matrix:
 Charge = -1 Multiplicity = 4

                         Standard orientation:
 ---------------------------------------------------------------------
 Center     Atomic      Atomic             Coordinates (Angstroms)
 Number     Number       Type             X           Y           Z
 ---------------------------------------------------------------------
      1          8           0        0.615183   -1.565183    0.000000
      2          8           0       -0.205061   -0.744939    0.000000
      3          8           0       -0.205061    0.575061   -0.000000
      4          8           0       -0.205061    1.735061   -0.000000
 ---------------------------------------------------------------------

 SCF Done:  E(ROHF) =  -298.972780936     A.U. after   18 cycles
 E2 =    -0.9442019717D+00 EUMP2 =    -0.29991698290808D+03
 CCSD(T)
 CCSD(T)= -0.29994816329D+03

 The electronic state is 4-A".
 Alpha  occ. eigenvalues --  -20.46574 -20.37891 -20.34610 -20.33131  -1.50292
 Alpha  occ. eigenvalues --   -1.38991  -1.07747  -0.74310  -0.59546  -0.59212
 Alpha  occ. eigenvalues --   -0.55365  -0.46489  -0.45981  -0.26522  -0.21557
 Alpha  occ. eigenvalues --   -0.17896  -0.10201  -0.07654
 Alpha virt. eigenvalues --    0.70813   0.74917   0.91136   0.91993   0.92409
 Alpha virt. eigenvalues --    0.96784   1.00227   1.01838   1.05090   1.08278
 Alpha virt. eigenvalues --    1.11941   1.13100   1.19113   1.24068   1.31092

 Mulliken charges and spin densities:
               1          2
     1  O   -0.524116   0.451658
     2  O    0.133007   1.086867
     3  O   -0.215807   0.743937
     4  O   -0.393085   0.717538
 Sum of Mulliken charges =  -1.00000   3.00000

 Dipole moment (field-independent basis, Debye):
    X=             -0.7858    Y=             -0.1868    Z=              0.0000  Tot=              0.8077
 Quadrupole moment (field-independent basis, Debye-Ang):
   XX=            -23.2776   YY=            -36.9328   ZZ=            -21.9553
   XY=              3.6081   XZ=             -0.0000   YZ=              0.0000

 3154\CCSD=-299.9088934\CCSD(T)=-299.9481633\RMSD=7.534e-09\PG=CS [SG(O
 Normal termination of Gaussian 16 at Sat Feb 17 20:53:02 2024.
