 Gaussian 16, Revision A.03,
 Gaussian 16:  ES64L-G16RevA.03 25-Dec-2016

 -----------------------------------------------
 #p ROCCSD(T,MaxCyc=200)/cc-pVTZ SCF(MaxCyc=200)
 -----------------------------------------------

 ---------
 O2_O2_117
 ---------
 Symbolic Z-matrix:
 Charge = -1 Multiplicity = 4

                         Standard orientation:
 ---------------------------------------------------------------------
 Center     Atomic      Atomic             Coordinates (Angstroms)
 Number     Number       Type             X           Y           Z
 ---------------------------------------------------------------------
      1          8           0        0.000000    0.000000    2.440000
      2          8           0        0.000000    0.000000    1.280000
      3          8           0        0.000000    0.000000   -1.280000
      4          8           0        0.000000    0.000000   -2.440000
 ---------------------------------------------------------------------

 SCF Done:  E(ROHF) =  -299.230747045     A.U. after   13 cycles
 E2 =    -0.9643391882D+00 EUMP2 =    -0.30019508623309D+03
 CCSD(T)
 CCSD(T)= -0.30020625843D+03

 Unable to determine electronic state:  an orbital has unidentified symmetry.
 Alpha  occ. eigenvalues --  -20.43227 -20.43227 -20.41405 -20.41405  -1.44171
 Alpha  occ. eigenvalues --   -1.44032  -0.87517  -0.85848  -0.54637  -0.54264
 Alpha  occ. eigenvalues --   -0.52591  -0.52199  -0.50116  -0.46883  -0.21783
 Alpha  occ. eigenvalues --   -0.20735  -0.19001  -0.18016
 Alpha virt. eigenvalues --    0.65802   0.71309   0.89182   0.90385   0.92116
 Alpha virt. eigenvalues --    0.93577   0.94890   0.99141   1.00396   1.03523
 Alpha virt. eigenvalues --    1.09761   1.11522   1.12501   1.12933   1.13855

 Mulliken charges and spin densities:
               1          2
     1  O   -0.314903   0.685766
     2  O   -0.185097   0.814234
     3  O   -0.185097   0.814234
     4  O   -0.314903   0.685766
 Sum of Mulliken charges =  -1.00000   3.00000

 Dipole moment (field-independent basis, Debye):
    X=             -0.0000    Y=              0.0000    Z=              0.0000  Tot=              0.0000
 Quadrupole moment (field-independent basis, Debye-Ang):
   XX=            -22.5038   YY=            -21.3236   ZZ=            -45.1005
   XY=              0.0000   XZ=              0.0000   YZ=              0.0000

 47\PMP2-0=-300.1950862\MP4SDQ=-300.1717598\CCSD=-300.1684333\CCSD(T)=-
 Normal termination of Gaussian 16 at Sat Feb 17 23:18:39 2024.
