 Gaussian 16, Revision A.03,
 Gaussian 16:  ES64L-G16RevA.03 25-Dec-2016

 -----------------------------------------------
 #p ROCCSD(T,MaxCyc=200)/cc-pVTZ SCF(MaxCyc=200)
 -----------------------------------------------

 --------
 O2_O2_58
 --------
 Symbolic Z-matrix:
 Charge = -1 Multiplicity = 4

                         Standard orientation:
 ---------------------------------------------------------------------
 Center     Atomic      Atomic             Coordinates (Angstroms)
 Number     Number       Type             X           Y           Z
 ---------------------------------------------------------------------
      1          8           0        0.615183   -1.785183    0.000000
      2          8           0       -0.205061   -0.964939    0.000000
      3          8           0       -0.205061    0.795061   -0.000000
      4          8           0       -0.205061    1.955061   -0.000000
 ---------------------------------------------------------------------

 SCF Done:  E(ROHF) =  -299.195516879     A.U. after   34 cycles
 E2 =    -0.9318734652D+00 EUMP2 =    -0.30012739034430D+03
 CCSD(T)
 CCSD(T)= -0.30016127125D+03

 The electronic state is 4-A".
 Alpha  occ. eigenvalues --  -20.53614 -20.46561 -20.28831 -20.28165  -1.52229
 Alpha  occ. eigenvalues --   -1.32222  -0.96570  -0.76728  -0.61662  -0.61658
 Alpha  occ. eigenvalues --   -0.55793  -0.43276  -0.40055  -0.36232  -0.27825
 Alpha  occ. eigenvalues --   -0.24933  -0.10076  -0.05857
 Alpha virt. eigenvalues --    0.64886   0.76906   0.88388   0.88950   0.93392
 Alpha virt. eigenvalues --    0.97464   0.99126   0.99132   1.03118   1.05447
 Alpha virt. eigenvalues --    1.13473   1.16771   1.20712   1.22315   1.25188

 Mulliken charges and spin densities:
               1          2
     1  O   -0.271834   0.703304
     2  O    0.154146   1.217015
     3  O   -0.432753   0.497334
     4  O   -0.449559   0.582348
 Sum of Mulliken charges =  -1.00000   3.00000

 Dipole moment (field-independent basis, Debye):
    X=              0.0270    Y=             -4.0166    Z=              0.0000  Tot=              4.0167
 Quadrupole moment (field-independent basis, Debye-Ang):
   XX=            -22.5544   YY=            -37.5879   ZZ=            -22.3640
   XY=              3.0902   XZ=             -0.0000   YZ=              0.0000

 5424\CCSD=-300.1234372\CCSD(T)=-300.1612712\RMSD=1.078e-09\PG=CS [SG(O
 Normal termination of Gaussian 16 at Sat Feb 17 21:49:14 2024.
