 Gaussian 16, Revision A.03,
 Gaussian 16:  ES64L-G16RevA.03 25-Dec-2016

 -----------------------------------------------
 #p ROCCSD(T,MaxCyc=200)/cc-pVTZ SCF(MaxCyc=200)
 -----------------------------------------------

 ---------
 O2_O2_228
 ---------
 Symbolic Z-matrix:
 Charge = -1 Multiplicity = 4

                         Standard orientation:
 ---------------------------------------------------------------------
 Center     Atomic      Atomic             Coordinates (Angstroms)
 Number     Number       Type             X           Y           Z
 ---------------------------------------------------------------------
      1          8           0        0.000000    0.000000    3.180000
      2          8           0        0.000000    0.000000    2.020000
      3          8           0        0.000000    0.000000   -2.020000
      4          8           0        0.000000    0.000000   -3.180000
 ---------------------------------------------------------------------

 SCF Done:  E(ROHF) =  -299.223666991     A.U. after   13 cycles
 E2 =    -0.9651743901D+00 EUMP2 =    -0.30018884138095D+03
 CCSD(T)
 CCSD(T)= -0.30019692664D+03

 Unable to determine electronic state:  partially filled degenerate orbitals.
 Alpha  occ. eigenvalues --  -20.44608 -20.44608 -20.43814 -20.43814  -1.45940
 Alpha  occ. eigenvalues --   -1.45938  -0.88661  -0.88621  -0.56330  -0.56321
 Alpha  occ. eigenvalues --   -0.54294  -0.54286  -0.50674  -0.50528  -0.23223
 Alpha  occ. eigenvalues --   -0.23181  -0.20633  -0.20457
 Alpha virt. eigenvalues --    0.59422   0.67226   0.90240   0.90524   0.90600
 Alpha virt. eigenvalues --    0.91495   0.91775   0.96911   1.01160   1.02221
 Alpha virt. eigenvalues --    1.02463   1.02906   1.03397   1.07717   1.11355

 Mulliken charges and spin densities:
               1          2
     1  O   -0.281712   0.715623
     2  O   -0.218288   0.784377
     3  O   -0.218288   0.784377
     4  O   -0.281712   0.715623
 Sum of Mulliken charges =  -1.00000   3.00000

 Dipole moment (field-independent basis, Debye):
    X=             -0.0000    Y=             -0.0000    Z=              0.0000  Tot=              0.0000
 Quadrupole moment (field-independent basis, Debye-Ang):
   XX=            -21.3026   YY=            -22.4138   ZZ=            -60.2470
   XY=              0.0000   XZ=              0.0000   YZ=              0.0000

 7\PMP2-0=-300.1888414\MP4SDQ=-300.1622057\CCSD=-300.1593278\CCSD(T)=-3
 Normal termination of Gaussian 16 at Sun Feb 18 01:06:12 2024.
