 Gaussian 16, Revision A.03,
 Gaussian 16:  ES64L-G16RevA.03 25-Dec-2016

 -----------------------------------------------
 #p ROCCSD(T,MaxCyc=200)/cc-pVTZ SCF(MaxCyc=200)
 -----------------------------------------------

 --------
 O2_O2_91
 --------
 Symbolic Z-matrix:
 Charge = -1 Multiplicity = 4

                         Standard orientation:
 ---------------------------------------------------------------------
 Center     Atomic      Atomic             Coordinates (Angstroms)
 Number     Number       Type             X           Y           Z
 ---------------------------------------------------------------------
      1          8           0        0.615183   -2.005183    0.000000
      2          8           0       -0.205061   -1.184939    0.000000
      3          8           0       -0.205061    1.015061   -0.000000
      4          8           0       -0.205061    2.175061   -0.000000
 ---------------------------------------------------------------------

 SCF Done:  E(ROHF) =  -299.226710434     A.U. after   25 cycles
 E2 =    -0.9641434606D+00 EUMP2 =    -0.30019085389493D+03
 CCSD(T)
 CCSD(T)= -0.30020368507D+03

 The electronic state is 4-A".
 Alpha  occ. eigenvalues --  -20.42870 -20.42192 -20.40670 -20.39453  -1.43773
 Alpha  occ. eigenvalues --   -1.42714  -0.87936  -0.84098  -0.54302  -0.53598
 Alpha  occ. eigenvalues --   -0.52227  -0.50868  -0.49813  -0.44672  -0.20992
 Alpha  occ. eigenvalues --   -0.19433  -0.18694  -0.16531
 Alpha virt. eigenvalues --    0.67321   0.71113   0.89044   0.90394   0.95074
 Alpha virt. eigenvalues --    0.96284   0.97122   1.01487   1.02183   1.05421
 Alpha virt. eigenvalues --    1.06935   1.12407   1.15585   1.16177   1.17163

 Mulliken charges and spin densities:
               1          2
     1  O   -0.333324   0.654346
     2  O   -0.178383   0.835805
     3  O   -0.160210   0.827502
     4  O   -0.328083   0.682347
 Sum of Mulliken charges =  -1.00000   3.00000

 Dipole moment (field-independent basis, Debye):
    X=             -0.3007    Y=              0.1119    Z=             -0.0000  Tot=              0.3208
 Quadrupole moment (field-independent basis, Debye-Ang):
   XX=            -22.7557   YY=            -39.6203   ZZ=            -22.5217
   XY=              3.2786   XZ=             -0.0000   YZ=              0.0000

 0814\CCSD=-300.1656135\CCSD(T)=-300.2036851\RMSD=3.450e-09\PG=CS [SG(O
 Normal termination of Gaussian 16 at Sat Feb 17 22:41:08 2024.
