 Gaussian 16, Revision A.03,
 Gaussian 16:  ES64L-G16RevA.03 25-Dec-2016

 -----------------------------------------------
 #p ROCCSD(T,MaxCyc=200)/cc-pVTZ SCF(MaxCyc=200)
 -----------------------------------------------

 ---------
 O2_O2_147
 ---------
 Symbolic Z-matrix:
 Charge = -1 Multiplicity = 4

                         Standard orientation:
 ---------------------------------------------------------------------
 Center     Atomic      Atomic             Coordinates (Angstroms)
 Number     Number       Type             X           Y           Z
 ---------------------------------------------------------------------
      1          8           0        0.000000    0.000000    2.640000
      2          8           0        0.000000    0.000000    1.480000
      3          8           0        0.000000    0.000000   -1.480000
      4          8           0        0.000000    0.000000   -2.640000
 ---------------------------------------------------------------------

 SCF Done:  E(ROHF) =  -299.228253157     A.U. after   13 cycles
 E2 =    -0.9646289023D+00 EUMP2 =    -0.30019288205955D+03
 CCSD(T)
 CCSD(T)= -0.30020286481D+03

 Unable to determine electronic state:  partially filled degenerate orbitals.
 Alpha  occ. eigenvalues --  -20.43699 -20.43699 -20.42266 -20.42266  -1.44741
 Alpha  occ. eigenvalues --   -1.44698  -0.87641  -0.87010  -0.55158  -0.55017
 Alpha  occ. eigenvalues --   -0.53112  -0.52960  -0.49950  -0.48517  -0.22158
 Alpha  occ. eigenvalues --   -0.21690  -0.19395  -0.19022
 Alpha virt. eigenvalues --    0.61716   0.70980   0.88824   0.89856   0.91085
 Alpha virt. eigenvalues --    0.92562   0.93844   0.99460   1.00657   1.02142
 Alpha virt. eigenvalues --    1.06239   1.08168   1.09514   1.11492   1.12453

 Mulliken charges and spin densities:
               1          2
     1  O   -0.298732   0.696534
     2  O   -0.201268   0.803466
     3  O   -0.201268   0.803466
     4  O   -0.298732   0.696534
 Sum of Mulliken charges =  -1.00000   3.00000

 Dipole moment (field-independent basis, Debye):
    X=             -0.0000    Y=              0.0000    Z=              0.0000  Tot=              0.0000
 Quadrupole moment (field-independent basis, Debye-Ang):
   XX=            -22.4693   YY=            -21.3156   ZZ=            -48.6183
   XY=              0.0000   XZ=              0.0000   YZ=              0.0000

 Normal termination of Gaussian 16 at Sat Feb 17 23:54:05 2024.
