 Gaussian 16, Revision A.03,
 Gaussian 16:  ES64L-G16RevA.03 25-Dec-2016

 -----------------------------------------------
 #p ROCCSD(T,MaxCyc=200)/cc-pVTZ SCF(MaxCyc=200)
 -----------------------------------------------

 --------
 O2_O2_13
 --------
 Symbolic Z-matrix:
 Charge = -1 Multiplicity = 4

                         Standard orientation:
 ---------------------------------------------------------------------
 Center     Atomic      Atomic             Coordinates (Angstroms)
 Number     Number       Type             X           Y           Z
 ---------------------------------------------------------------------
      1          8           0        0.615183   -1.485183    0.000000
      2          8           0       -0.205061   -0.664939    0.000000
      3          8           0       -0.205061    0.495061   -0.000000
      4          8           0       -0.205061    1.655061   -0.000000
 ---------------------------------------------------------------------

 SCF Done:  E(ROHF) =  -298.809683576     A.U. after   19 cycles
 E2 =    -0.9559469790D+00 EUMP2 =    -0.29976563055452D+03
 CCSD(T)
 CCSD(T)= -0.29979027547D+03

 The electronic state is 4-A".
 Alpha  occ. eigenvalues --  -20.45263 -20.45133 -20.35364 -20.28201  -1.58961
 Alpha  occ. eigenvalues --   -1.39834  -1.15243  -0.72747  -0.65238  -0.63758
 Alpha  occ. eigenvalues --   -0.57130  -0.45793  -0.44548  -0.23364  -0.22135
 Alpha  occ. eigenvalues --   -0.17098  -0.08536   0.03414
 Alpha virt. eigenvalues --    0.70671   0.76710   0.89408   0.90661   0.90808
 Alpha virt. eigenvalues --    0.93866   1.00704   1.02339   1.06256   1.09680
 Alpha virt. eigenvalues --    1.10856   1.16244   1.17716   1.23842   1.36439

 Mulliken charges and spin densities:
               1          2
     1  O   -0.653839   0.300006
     2  O    0.129282   0.807620
     3  O   -0.122379   0.974651
     4  O   -0.353064   0.917723
 Sum of Mulliken charges =  -1.00000   3.00000

 Dipole moment (field-independent basis, Debye):
    X=             -1.2045    Y=              0.7886    Z=             -0.0000  Tot=              1.4397
 Quadrupole moment (field-independent basis, Debye-Ang):
   XX=            -23.5212   YY=            -37.5239   ZZ=            -21.7557
   XY=              3.9645   XZ=             -0.0000   YZ=              0.0000

 6934\CCSD=-299.750901\CCSD(T)=-299.7902755\RMSD=5.806e-09\PG=CS [SG(O4
 Normal termination of Gaussian 16 at Sat Feb 17 20:33:21 2024.
