 Gaussian 16, Revision A.03,
 Gaussian 16:  ES64L-G16RevA.03 25-Dec-2016

 -----------------------------------------------
 #p ROCCSD(T,MaxCyc=200)/cc-pVTZ SCF(MaxCyc=200)
 -----------------------------------------------

 ---------
 O2_O2_136
 ---------
 Symbolic Z-matrix:
 Charge = -1 Multiplicity = 4

                         Standard orientation:
 ---------------------------------------------------------------------
 Center     Atomic      Atomic             Coordinates (Angstroms)
 Number     Number       Type             X           Y           Z
 ---------------------------------------------------------------------
      1          8           0        0.615183   -2.305183    0.000000
      2          8           0       -0.205061   -1.484939    0.000000
      3          8           0       -0.205061    1.315061    0.000000
      4          8           0       -0.205061    2.475061    0.000000
 ---------------------------------------------------------------------

 SCF Done:  E(ROHF) =  -299.228908366     A.U. after   23 cycles
 E2 =    -0.9644775321D+00 EUMP2 =    -0.30019338589784D+03
 CCSD(T)
 CCSD(T)= -0.30020396974D+03

 The electronic state is 4-A".
 Alpha  occ. eigenvalues --  -20.43435 -20.43320 -20.41850 -20.41747  -1.44408
 Alpha  occ. eigenvalues --   -1.44232  -0.87397  -0.86526  -0.54814  -0.54610
 Alpha  occ. eigenvalues --   -0.52779  -0.52509  -0.49671  -0.48034  -0.21685
 Alpha  occ. eigenvalues --   -0.21325  -0.19082  -0.18558
 Alpha virt. eigenvalues --    0.63545   0.69464   0.88838   0.90377   0.90827
 Alpha virt. eigenvalues --    0.94170   0.94511   0.98699   1.00948   1.03875
 Alpha virt. eigenvalues --    1.06167   1.07579   1.10620   1.11145   1.12931

 Mulliken charges and spin densities:
               1          2
     1  O   -0.299117   0.694037
     2  O   -0.201565   0.805251
     3  O   -0.196545   0.808345
     4  O   -0.302774   0.692368
 Sum of Mulliken charges =  -1.00000   3.00000

 Dipole moment (field-independent basis, Debye):
    X=             -0.1794    Y=             -0.0790    Z=              0.0000  Tot=              0.1961
 Quadrupole moment (field-independent basis, Debye-Ang):
   XX=            -22.6482   YY=            -44.1029   ZZ=            -22.4772
   XY=              3.3852   XZ=              0.0000   YZ=              0.0000

 3231\CCSD=-300.1661232\CCSD(T)=-300.2039697\RMSD=7.813e-09\PG=CS [SG(O
 Normal termination of Gaussian 16 at Sat Feb 17 23:46:24 2024.
