 Gaussian 16, Revision A.03,
 Gaussian 16:  ES64L-G16RevA.03 25-Dec-2016

 -----------------------------------------------
 #p ROCCSD(T,MaxCyc=200)/cc-pVTZ SCF(MaxCyc=200)
 -----------------------------------------------

 ---------
 O2_O2_129
 ---------
 Symbolic Z-matrix:
 Charge = -1 Multiplicity = 4

                         Standard orientation:
 ---------------------------------------------------------------------
 Center     Atomic      Atomic             Coordinates (Angstroms)
 Number     Number       Type             X           Y           Z
 ---------------------------------------------------------------------
      1          8           0        0.000000    0.000000    2.520000
      2          8           0        0.000000    0.000000    1.360000
      3          8           0        0.000000    0.000000   -1.360000
      4          8           0        0.000000    0.000000   -2.520000
 ---------------------------------------------------------------------

 SCF Done:  E(ROHF) =  -299.229859898     A.U. after   13 cycles
 E2 =    -0.9644762011D+00 EUMP2 =    -0.30019433609912D+03
 CCSD(T)
 CCSD(T)= -0.30020498766D+03

 Unable to determine electronic state:  partially filled degenerate orbitals.
 Alpha  occ. eigenvalues --  -20.43436 -20.43435 -20.41778 -20.41778  -1.44408
 Alpha  occ. eigenvalues --   -1.44321  -0.87514  -0.86382  -0.54849  -0.54595
 Alpha  occ. eigenvalues --   -0.52802  -0.52533  -0.49986  -0.47648  -0.21923
 Alpha  occ. eigenvalues --   -0.21162  -0.19149  -0.18465
 Alpha virt. eigenvalues --    0.64210   0.71190   0.89425   0.90435   0.90638
 Alpha virt. eigenvalues --    0.93163   0.94460   0.99154   1.00381   1.02936
 Alpha virt. eigenvalues --    1.08105   1.10667   1.11526   1.12022   1.12737

 Mulliken charges and spin densities:
               1          2
     1  O   -0.307434   0.690290
     2  O   -0.192566   0.809710
     3  O   -0.192566   0.809710
     4  O   -0.307434   0.690290
 Sum of Mulliken charges =  -1.00000   3.00000

 Dipole moment (field-independent basis, Debye):
    X=             -0.0000    Y=              0.0000    Z=             -0.0000  Tot=              0.0000
 Quadrupole moment (field-independent basis, Debye-Ang):
   XX=            -22.4891   YY=            -21.3202   ZZ=            -46.4517
   XY=              0.0000   XZ=              0.0000   YZ=              0.0000

 Normal termination of Gaussian 16 at Sat Feb 17 23:37:12 2024.
