 Gaussian 16, Revision A.03,
 Gaussian 16:  ES64L-G16RevA.03 25-Dec-2016

 -----------------------------------------------
 #p ROCCSD(T,MaxCyc=200)/cc-pVTZ SCF(MaxCyc=200)
 -----------------------------------------------

 --------
 O2_O2_15
 --------
 Symbolic Z-matrix:
 Charge = -1 Multiplicity = 4

                         Standard orientation:
 ---------------------------------------------------------------------
 Center     Atomic      Atomic             Coordinates (Angstroms)
 Number     Number       Type             X           Y           Z
 ---------------------------------------------------------------------
      1          8           0        0.000000    0.000000    1.760000
      2          8           0        0.000000    0.000000    0.600000
      3          8           0        0.000000    0.000000   -0.600000
      4          8           0        0.000000    0.000000   -1.760000
 ---------------------------------------------------------------------

 SCF Done:  E(ROHF) =  -298.808617760     A.U. after   12 cycles
 E2 =    -0.9898570066D+00 EUMP2 =    -0.29979847476705D+03
 CCSD(T)
 CCSD(T)= -0.29980969790D+03

 The electronic state is 4-SGU.
 Alpha  occ. eigenvalues --  -20.49735 -20.49718 -20.30787 -20.30786  -1.57897
 Alpha  occ. eigenvalues --   -1.40830  -1.17147  -0.70921  -0.66126  -0.66126
 Alpha  occ. eigenvalues --   -0.56340  -0.47907  -0.47907  -0.21679  -0.21679
 Alpha  occ. eigenvalues --   -0.11977  -0.10121  -0.10121
 Alpha virt. eigenvalues --    0.69099   0.73932   0.85964   0.89558   0.89558
 Alpha virt. eigenvalues --    0.94696   1.00425   1.00425   1.09268   1.09268
 Alpha virt. eigenvalues --    1.11762   1.23306   1.23306   1.31623   1.36028

 Mulliken charges and spin densities:
               1          2
     1  O   -0.558424   0.388205
     2  O    0.058424   1.111795
     3  O    0.058424   1.111795
     4  O   -0.558424   0.388205
 Sum of Mulliken charges =  -1.00000   3.00000

 Dipole moment (field-independent basis, Debye):
    X=             -0.0000    Y=              0.0000    Z=              0.0000  Tot=              0.0000
 Quadrupole moment (field-independent basis, Debye-Ang):
   XX=            -21.7922   YY=            -21.7922   ZZ=            -42.7763
   XY=              0.0000   XZ=              0.0000   YZ=             -0.0000

 24\CCSD(T)=-299.8096979\RMSD=4.675e-09\PG=D*H [C*(O1O1.O1O1)]\\@
 Normal termination of Gaussian 16 at Sat Feb 17 20:36:38 2024.
