 Gaussian 16, Revision A.03,
 Gaussian 16:  ES64L-G16RevA.03 25-Dec-2016

 -----------------------------------------------
 #p ROCCSD(T,MaxCyc=200)/cc-pVTZ SCF(MaxCyc=200)
 -----------------------------------------------

 --------
 O2_O2_74
 --------
 Symbolic Z-matrix:
 Charge = -1 Multiplicity = 4

                         Standard orientation:
 ---------------------------------------------------------------------
 Center     Atomic      Atomic             Coordinates (Angstroms)
 Number     Number       Type             X           Y           Z
 ---------------------------------------------------------------------
      1          8           0       -0.870000   -1.270000    0.000000
      2          8           0        0.290000   -1.270000    0.000000
      3          8           0        0.290000    0.690000    0.000000
      4          8           0        0.290000    1.850000    0.000000
 ---------------------------------------------------------------------

 SCF Done:  E(ROHF) =  -299.209531083     A.U. after   24 cycles
 E2 =    -0.9636205496D+00 EUMP2 =    -0.30017315163239D+03
 CCSD(T)
 CCSD(T)= -0.30018745510D+03

 The electronic state is 4-A'.
 Alpha  occ. eigenvalues --  -20.40516 -20.39968 -20.39670 -20.38024  -1.42775
 Alpha  occ. eigenvalues --   -1.40931  -0.86975  -0.83101  -0.53973  -0.53378
 Alpha  occ. eigenvalues --   -0.50928  -0.50161  -0.46865  -0.41046  -0.19921
 Alpha  occ. eigenvalues --   -0.17967  -0.17727  -0.14143
 Alpha virt. eigenvalues --    0.66185   0.71882   0.90300   0.94095   0.95248
 Alpha virt. eigenvalues --    0.96525   0.97387   1.03730   1.04548   1.04739
 Alpha virt. eigenvalues --    1.06448   1.11429   1.14853   1.19687   1.24846

 Mulliken charges and spin densities:
               1          2
     1  O   -0.285183   0.715564
     2  O   -0.215030   0.783785
     3  O   -0.142945   0.835283
     4  O   -0.356842   0.665368
 Sum of Mulliken charges =  -1.00000   3.00000

 Dipole moment (field-independent basis, Debye):
    X=              0.2325    Y=             -0.4098    Z=              0.0000  Tot=              0.4712
 Quadrupole moment (field-independent basis, Debye-Ang):
   XX=            -24.5067   YY=            -34.3437   ZZ=            -21.3212
   XY=             -2.1535   XZ=              0.0000   YZ=              0.0000

 69\CCSD(T)=-300.1874551\RMSD=5.512e-09\PG=CS [SG(O4)]\\@
 Normal termination of Gaussian 16 at Sat Feb 17 22:15:31 2024.
