 Gaussian 16, Revision A.03,
 Gaussian 16:  ES64L-G16RevA.03 25-Dec-2016

 -----------------------------------------------
 #p ROCCSD(T,MaxCyc=200)/cc-pVTZ SCF(MaxCyc=200)
 -----------------------------------------------

 ---------
 O2_O2_135
 ---------
 Symbolic Z-matrix:
 Charge = -1 Multiplicity = 4

                         Standard orientation:
 ---------------------------------------------------------------------
 Center     Atomic      Atomic             Coordinates (Angstroms)
 Number     Number       Type             X           Y           Z
 ---------------------------------------------------------------------
      1          8           0        0.000000    0.000000    2.560000
      2          8           0        0.000000    0.000000    1.400000
      3          8           0        0.000000    0.000000   -1.400000
      4          8           0        0.000000    0.000000   -2.560000
 ---------------------------------------------------------------------

 SCF Done:  E(ROHF) =  -299.229324970     A.U. after   13 cycles
 E2 =    -0.9645331161D+00 EUMP2 =    -0.30019385808601D+03
 CCSD(T)
 CCSD(T)= -0.30020427285D+03

 Unable to determine electronic state:  partially filled degenerate orbitals.
 Alpha  occ. eigenvalues --  -20.43528 -20.43528 -20.41949 -20.41949  -1.44522
 Alpha  occ. eigenvalues --   -1.44453  -0.87543  -0.86611  -0.54953  -0.54744
 Alpha  occ. eigenvalues --   -0.52906  -0.52684  -0.49956  -0.47969  -0.21999
 Alpha  occ. eigenvalues --   -0.21351  -0.19229  -0.18664
 Alpha virt. eigenvalues --    0.63370   0.71127   0.89570   0.89777   0.90788
 Alpha virt. eigenvalues --    0.92960   0.94251   0.99223   1.00439   1.02666
 Alpha virt. eigenvalues --    1.07412   1.09793   1.11146   1.11521   1.12642

 Mulliken charges and spin densities:
               1          2
     1  O   -0.304229   0.692458
     2  O   -0.195771   0.807542
     3  O   -0.195771   0.807542
     4  O   -0.304229   0.692458
 Sum of Mulliken charges =  -1.00000   3.00000

 Dipole moment (field-independent basis, Debye):
    X=             -0.0000    Y=              0.0000    Z=              0.0000  Tot=              0.0000
 Quadrupole moment (field-independent basis, Debye-Ang):
   XX=            -21.3185   YY=            -22.4821   ZZ=            -47.1559
   XY=              0.0000   XZ=              0.0000   YZ=              0.0000

 5\PMP2-0=-300.1938581\MP4SDQ=-300.1697105\CCSD=-300.1664985\CCSD(T)=-3
 Normal termination of Gaussian 16 at Sat Feb 17 23:44:55 2024.
