 Gaussian 16, Revision A.03,
 Gaussian 16:  ES64L-G16RevA.03 25-Dec-2016

 -----------------------------------------------
 #p ROCCSD(T,MaxCyc=200)/cc-pVTZ SCF(MaxCyc=200)
 -----------------------------------------------

 -------
 O2_O2_0
 -------
 Symbolic Z-matrix:
 Charge = -1 Multiplicity = 4

                         Standard orientation:
 ---------------------------------------------------------------------
 Center     Atomic      Atomic             Coordinates (Angstroms)
 Number     Number       Type             X           Y           Z
 ---------------------------------------------------------------------
      1          8           0        0.000000    0.000000    1.660000
      2          8           0        0.000000    0.000000    0.500000
      3          8           0        0.000000    0.000000   -0.500000
      4          8           0        0.000000    0.000000   -1.660000
 ---------------------------------------------------------------------

 SCF Done:  E(ROHF) =  -298.524336784     A.U. after   13 cycles
 E2 =    -0.9787086730D+00 EUMP2 =    -0.29950304545681D+03
 CCSD(T)
 CCSD(T)= -0.29951514112D+03

 The electronic state is 4-SGU.
 Alpha  occ. eigenvalues --  -20.51940 -20.51770 -20.27765 -20.27763  -1.76978
 Alpha  occ. eigenvalues --   -1.40011  -1.24692  -0.78660  -0.78660  -0.66760
 Alpha  occ. eigenvalues --   -0.56520  -0.44969  -0.44969  -0.21926  -0.21926
 Alpha  occ. eigenvalues --   -0.05611  -0.05611   0.09521
 Alpha virt. eigenvalues --    0.63035   0.73933   0.79730   0.86791   0.86791
 Alpha virt. eigenvalues --    0.91353   1.01461   1.01461   1.10270   1.10270
 Alpha virt. eigenvalues --    1.11390   1.23981   1.23981   1.39580   1.53837

 Mulliken charges and spin densities:
               1          2
     1  O   -0.557695   0.367679
     2  O    0.057695   1.132321
     3  O    0.057695   1.132321
     4  O   -0.557695   0.367679
 Sum of Mulliken charges =  -1.00000   3.00000

 Dipole moment (field-independent basis, Debye):
    X=             -0.0000    Y=              0.0000    Z=             -0.0000  Tot=              0.0000
 Quadrupole moment (field-independent basis, Debye-Ang):
   XX=            -21.4794   YY=            -21.4794   ZZ=            -44.5754
   XY=             -0.0000   XZ=              0.0000   YZ=             -0.0000

 \CCSD(T)=-299.5151411\RMSD=3.209e-09\PG=D*H [C*(O1O1.O1O1)]\\@
 Normal termination of Gaussian 16 at Sat Feb 17 20:13:40 2024.
