 Gaussian 16, Revision A.03,
 Gaussian 16:  ES64L-G16RevA.03 25-Dec-2016

 -----------------------------------------------
 #p ROCCSD(T,MaxCyc=200)/cc-pVTZ SCF(MaxCyc=200)
 -----------------------------------------------

 ---------
 O2_O2_285
 ---------
 Symbolic Z-matrix:
 Charge = -1 Multiplicity = 4

                         Standard orientation:
 ---------------------------------------------------------------------
 Center     Atomic      Atomic             Coordinates (Angstroms)
 Number     Number       Type             X           Y           Z
 ---------------------------------------------------------------------
      1          8           0        0.000000    0.000000    3.560000
      2          8           0        0.000000    0.000000    2.400000
      3          8           0        0.000000    0.000000   -2.400000
      4          8           0        0.000000    0.000000   -3.560000
 ---------------------------------------------------------------------

 SCF Done:  E(ROHF) =  -299.223889903     A.U. after   13 cycles
 E2 =    -0.9657685406D+00 EUMP2 =    -0.30018965844351D+03
 CCSD(T)
 CCSD(T)= -0.30019692952D+03

 Unable to determine electronic state:  partially filled degenerate orbitals.
 Alpha  occ. eigenvalues --  -20.45215 -20.45215 -20.44597 -20.44597  -1.46616
 Alpha  occ. eigenvalues --   -1.46616  -0.89344  -0.89340  -0.57003  -0.57002
 Alpha  occ. eigenvalues --   -0.54965  -0.54964  -0.51326  -0.51304  -0.23894
 Alpha  occ. eigenvalues --   -0.23889  -0.21297  -0.21160
 Alpha virt. eigenvalues --    0.61878   0.63808   0.89725   0.89755   0.90979
 Alpha virt. eigenvalues --    0.91006   0.92584   0.93717   1.00941   1.01057
 Alpha virt. eigenvalues --    1.02230   1.02243   1.03110   1.04084   1.10717

 Mulliken charges and spin densities:
               1          2
     1  O   -0.274512   0.723719
     2  O   -0.225488   0.776281
     3  O   -0.225488   0.776281
     4  O   -0.274512   0.723719
 Sum of Mulliken charges =  -1.00000   3.00000

 Dipole moment (field-independent basis, Debye):
    X=             -0.0000    Y=             -0.0000    Z=              0.0000  Tot=              0.0000
 Quadrupole moment (field-independent basis, Debye-Ang):
   XX=            -21.2998   YY=            -22.4151   ZZ=            -70.1230
   XY=              0.0000   XZ=              0.0000   YZ=              0.0000

 899\PMP2-0=-300.1896584\MP4SDQ=-300.1621556\CCSD=-300.159373\CCSD(T)=-
 Normal termination of Gaussian 16 at Sun Feb 18 01:36:17 2024.
