 Gaussian 16, Revision A.03,
 Gaussian 16:  ES64L-G16RevA.03 25-Dec-2016

 -----------------------------------------------
 #p ROCCSD(T,MaxCyc=200)/cc-pVTZ SCF(MaxCyc=200)
 -----------------------------------------------

 ---------
 O2_O2_119
 ---------
 Symbolic Z-matrix:
 Charge = -1 Multiplicity = 4

                         Standard orientation:
 ---------------------------------------------------------------------
 Center     Atomic      Atomic             Coordinates (Angstroms)
 Number     Number       Type             X           Y           Z
 ---------------------------------------------------------------------
      1          8           0       -0.870000   -1.570000    0.000000
      2          8           0        0.290000   -1.570000    0.000000
      3          8           0        0.290000    0.990000    0.000000
      4          8           0        0.290000    2.150000    0.000000
 ---------------------------------------------------------------------

 SCF Done:  E(ROHF) =  -299.233786966     A.U. after   26 cycles
 E2 =    -0.9637045359D+00 EUMP2 =    -0.30019749150158D+03
 CCSD(T)
 CCSD(T)= -0.30020951874D+03

 The electronic state is 4-A'.
 Alpha  occ. eigenvalues --  -20.42435 -20.41835 -20.41757 -20.40306  -1.43451
 Alpha  occ. eigenvalues --   -1.43099  -0.86432  -0.85571  -0.53981  -0.53354
 Alpha  occ. eigenvalues --   -0.52398  -0.51425  -0.48493  -0.46569  -0.20851
 Alpha  occ. eigenvalues --   -0.20231  -0.18437  -0.16988
 Alpha virt. eigenvalues --    0.64886   0.69258   0.89113   0.91003   0.93244
 Alpha virt. eigenvalues --    0.95113   0.96128   1.00079   1.00833   1.03126
 Alpha virt. eigenvalues --    1.05583   1.08314   1.08796   1.13669   1.19171

 Mulliken charges and spin densities:
               1          2
     1  O   -0.268804   0.730849
     2  O   -0.227761   0.773159
     3  O   -0.182040   0.820604
     4  O   -0.321395   0.675388
 Sum of Mulliken charges =  -1.00000   3.00000

 Dipole moment (field-independent basis, Debye):
    X=              0.0992    Y=             -0.3774    Z=              0.0000  Tot=              0.3902
 Quadrupole moment (field-independent basis, Debye-Ang):
   XX=            -24.4892   YY=            -37.7367   ZZ=            -21.3283
   XY=             -2.4847   XZ=              0.0000   YZ=              0.0000

 \CCSD(T)=-300.2095187\RMSD=8.898e-09\PG=CS [SG(O4)]\\@
 Normal termination of Gaussian 16 at Sat Feb 17 23:22:02 2024.
