 Gaussian 16, Revision A.03,
 Gaussian 16:  ES64L-G16RevA.03 25-Dec-2016

 -----------------------------------------------
 #p ROCCSD(T,MaxCyc=200)/cc-pVTZ SCF(MaxCyc=200)
 -----------------------------------------------

 --------
 O2_O2_95
 --------
 Symbolic Z-matrix:
 Charge = -1 Multiplicity = 4

                         Standard orientation:
 ---------------------------------------------------------------------
 Center     Atomic      Atomic             Coordinates (Angstroms)
 Number     Number       Type             X           Y           Z
 ---------------------------------------------------------------------
      1          8           0       -0.870000   -1.410000    0.000000
      2          8           0        0.290000   -1.410000    0.000000
      3          8           0        0.290000    0.830000    0.000000
      4          8           0        0.290000    1.990000    0.000000
 ---------------------------------------------------------------------

 SCF Done:  E(ROHF) =  -299.230108046     A.U. after   24 cycles
 E2 =    -0.9633780997D+00 EUMP2 =    -0.30019348614611D+03
 CCSD(T)
 CCSD(T)= -0.30020670225D+03

 The electronic state is 4-A'.
 Alpha  occ. eigenvalues --  -20.41612 -20.41033 -20.40867 -20.39205  -1.42960
 Alpha  occ. eigenvalues --   -1.42127  -0.86297  -0.84489  -0.53553  -0.52859
 Alpha  occ. eigenvalues --   -0.52273  -0.50689  -0.47805  -0.44348  -0.20308
 Alpha  occ. eigenvalues --   -0.19217  -0.18115  -0.15682
 Alpha virt. eigenvalues --    0.65579   0.70902   0.89263   0.93281   0.95838
 Alpha virt. eigenvalues --    0.96252   0.97004   0.99972   1.01918   1.03806
 Alpha virt. eigenvalues --    1.06026   1.10163   1.13489   1.14303   1.22553

 Mulliken charges and spin densities:
               1          2
     1  O   -0.275057   0.724318
     2  O   -0.221887   0.780506
     3  O   -0.162368   0.828230
     4  O   -0.340689   0.666946
 Sum of Mulliken charges =  -1.00000   3.00000

 Dipole moment (field-independent basis, Debye):
    X=              0.1501    Y=             -0.4115    Z=              0.0000  Tot=              0.4380
 Quadrupole moment (field-independent basis, Debye-Ang):
   XX=            -24.5138   YY=            -35.7403   ZZ=            -21.3339
   XY=             -2.2947   XZ=              0.0000   YZ=              0.0000

 CCSD(T)=-300.2067022\RMSD=1.015e-09\PG=CS [SG(O4)]\\@
 Normal termination of Gaussian 16 at Sat Feb 17 22:47:14 2024.
