 Gaussian 16, Revision A.03,
 Gaussian 16:  ES64L-G16RevA.03 25-Dec-2016

 -----------------------------------------------
 #p ROCCSD(T,MaxCyc=200)/cc-pVTZ SCF(MaxCyc=200)
 -----------------------------------------------

 -------
 O2_O2_4
 -------
 Symbolic Z-matrix:
 Charge = -1 Multiplicity = 4

                         Standard orientation:
 ---------------------------------------------------------------------
 Center     Atomic      Atomic             Coordinates (Angstroms)
 Number     Number       Type             X           Y           Z
 ---------------------------------------------------------------------
      1          8           0        0.615183   -1.425183    0.000000
      2          8           0       -0.205061   -0.604939   -0.000000
      3          8           0       -0.205061    0.435061   -0.000000
      4          8           0       -0.205061    1.595061   -0.000000
 ---------------------------------------------------------------------

 SCF Done:  E(ROHF) =  -298.655313605     A.U. after   18 cycles
 E2 =    -0.9394064343D+00 EUMP2 =    -0.29959472003922D+03
 CCSD(T)
 CCSD(T)= -0.29962425738D+03

 The electronic state is 4-A".
 Alpha  occ. eigenvalues --  -20.48488 -20.45867 -20.33870 -20.26197  -1.69907
 Alpha  occ. eigenvalues --   -1.40697  -1.19967  -0.73636  -0.72862  -0.68171
 Alpha  occ. eigenvalues --   -0.57399  -0.44243  -0.43073  -0.22925  -0.22804
 Alpha  occ. eigenvalues --   -0.14133  -0.05638   0.07705
 Alpha virt. eigenvalues --    0.71235   0.76819   0.88270   0.88516   0.88846
 Alpha virt. eigenvalues --    0.94992   1.01169   1.02927   1.06524   1.09997
 Alpha virt. eigenvalues --    1.11225   1.16879   1.19064   1.23946   1.46692

 Mulliken charges and spin densities:
               1          2
     1  O   -0.724232   0.181463
     2  O    0.145168   0.566112
     3  O   -0.106815   1.105539
     4  O   -0.314122   1.146886
 Sum of Mulliken charges =  -1.00000   3.00000

 Dipole moment (field-independent basis, Debye):
    X=             -1.4269    Y=              0.6593    Z=             -0.0000  Tot=              1.5718
 Quadrupole moment (field-independent basis, Debye-Ang):
   XX=            -23.5502   YY=            -38.2685   ZZ=            -21.5865
   XY=              4.1321   XZ=             -0.0000   YZ=              0.0000

 CSD=-299.5867767\CCSD(T)=-299.6242574\RMSD=4.402e-09\PG=CS [SG(O4)]\\@
 Normal termination of Gaussian 16 at Sat Feb 17 20:19:44 2024.
