 Gaussian 16, Revision A.03,
 Gaussian 16:  ES64L-G16RevA.03 25-Dec-2016

 -----------------------------------------------
 #p ROCCSD(T,MaxCyc=200)/cc-pVTZ SCF(MaxCyc=200)
 -----------------------------------------------

 --------
 O2_O2_21
 --------
 Symbolic Z-matrix:
 Charge = -1 Multiplicity = 4

                         Standard orientation:
 ---------------------------------------------------------------------
 Center     Atomic      Atomic             Coordinates (Angstroms)
 Number     Number       Type             X           Y           Z
 ---------------------------------------------------------------------
      1          8           0        0.000000    0.000000    1.800000
      2          8           0        0.000000    0.000000    0.640000
      3          8           0        0.000000    0.000000   -0.640000
      4          8           0        0.000000    0.000000   -1.800000
 ---------------------------------------------------------------------

 SCF Done:  E(ROHF) =  -298.863201214     A.U. after   12 cycles
 E2 =    -0.9977181867D+00 EUMP2 =    -0.29986091940096D+03
 CCSD(T)
 CCSD(T)= -0.29987007316D+03

 The electronic state is 4-SGU.
 Alpha  occ. eigenvalues --  -20.49329 -20.49327 -20.32054 -20.32053  -1.53619
 Alpha  occ. eigenvalues --   -1.41319  -1.13709  -0.72847  -0.63026  -0.63026
 Alpha  occ. eigenvalues --   -0.56424  -0.48798  -0.48798  -0.21626  -0.21626
 Alpha  occ. eigenvalues --   -0.19506  -0.11458  -0.11458
 Alpha virt. eigenvalues --    0.69908   0.73317   0.88658   0.90040   0.90040
 Alpha virt. eigenvalues --    0.96672   0.99903   0.99903   1.08557   1.08557
 Alpha virt. eigenvalues --    1.11667   1.23006   1.23006   1.25262   1.34270

 Mulliken charges and spin densities:
               1          2
     1  O   -0.549471   0.397607
     2  O    0.049471   1.102393
     3  O    0.049471   1.102393
     4  O   -0.549471   0.397607
 Sum of Mulliken charges =  -1.00000   3.00000

 Dipole moment (field-independent basis, Debye):
    X=             -0.0000    Y=             -0.0000    Z=             -0.0000  Tot=              0.0000
 Quadrupole moment (field-independent basis, Debye-Ang):
   XX=            -21.9139   YY=            -21.9139   ZZ=            -42.3381
   XY=              0.0000   XZ=              0.0000   YZ=              0.0000

 719\CCSD(T)=-299.8700732\RMSD=3.534e-09\PG=D*H [C*(O1O1.O1O1)]\\@
 Normal termination of Gaussian 16 at Sat Feb 17 20:46:41 2024.
