 Gaussian 16, Revision A.03,
 Gaussian 16:  ES64L-G16RevA.03 25-Dec-2016

 -----------------------------------------------
 #p ROCCSD(T,MaxCyc=200)/cc-pVTZ SCF(MaxCyc=200)
 -----------------------------------------------

 ---------
 O2_O2_165
 ---------
 Symbolic Z-matrix:
 Charge = -1 Multiplicity = 4

                         Standard orientation:
 ---------------------------------------------------------------------
 Center     Atomic      Atomic             Coordinates (Angstroms)
 Number     Number       Type             X           Y           Z
 ---------------------------------------------------------------------
      1          8           0        0.000000    0.000000    2.760000
      2          8           0        0.000000    0.000000    1.600000
      3          8           0        0.000000    0.000000   -1.600000
      4          8           0        0.000000    0.000000   -2.760000
 ---------------------------------------------------------------------

 SCF Done:  E(ROHF) =  -299.226863653     A.U. after   13 cycles
 E2 =    -0.9647501168D+00 EUMP2 =    -0.30019161376963D+03
 CCSD(T)
 CCSD(T)= -0.30020103741D+03

 Unable to determine electronic state:  partially filled degenerate orbitals.
 Alpha  occ. eigenvalues --  -20.43933 -20.43933 -20.42687 -20.42687  -1.45050
 Alpha  occ. eigenvalues --   -1.45029  -0.87846  -0.87497  -0.55453  -0.55375
 Alpha  occ. eigenvalues --   -0.53410  -0.53323  -0.50036  -0.49162  -0.22406
 Alpha  occ. eigenvalues --   -0.22121  -0.19653  -0.19477
 Alpha virt. eigenvalues --    0.59641   0.70625   0.88194   0.90184   0.91425
 Alpha virt. eigenvalues --    0.91998   0.93270   0.99963   1.01144   1.01300
 Alpha virt. eigenvalues --    1.04890   1.06103   1.07437   1.11389   1.12180

 Mulliken charges and spin densities:
               1          2
     1  O   -0.292523   0.701954
     2  O   -0.207477   0.798046
     3  O   -0.207477   0.798046
     4  O   -0.292523   0.701954
 Sum of Mulliken charges =  -1.00000   3.00000

 Dipole moment (field-independent basis, Debye):
    X=             -0.0000    Y=             -0.0000    Z=             -0.0000  Tot=              0.0000
 Quadrupole moment (field-independent basis, Debye-Ang):
   XX=            -22.4533   YY=            -21.3118   ZZ=            -50.9400
   XY=              0.0000   XZ=              0.0000   YZ=              0.0000

 637\PMP2-0=-300.1916138\MP4SDQ=-300.1664126\CCSD=-300.1633432\CCSD(T)=
 Normal termination of Gaussian 16 at Sun Feb 18 00:15:20 2024.
