 Gaussian 16, Revision A.03,
 Gaussian 16:  ES64L-G16RevA.03 25-Dec-2016

 -----------------------------------------------
 #p ROCCSD(T,MaxCyc=200)/cc-pVTZ SCF(MaxCyc=200)
 -----------------------------------------------

 --------
 O2_O2_14
 --------
 Symbolic Z-matrix:
 Charge = -1 Multiplicity = 4

                         Standard orientation:
 ---------------------------------------------------------------------
 Center     Atomic      Atomic             Coordinates (Angstroms)
 Number     Number       Type             X           Y           Z
 ---------------------------------------------------------------------
      1          8           0       -0.870000   -0.870000    0.000000
      2          8           0        0.290000   -0.870000    0.000000
      3          8           0        0.290000    0.290000    0.000000
      4          8           0        0.290000    1.450000    0.000000
 ---------------------------------------------------------------------

 SCF Done:  E(ROHF) =  -298.743950944     A.U. after   21 cycles
 E2 =    -0.9725831800D+00 EUMP2 =    -0.29971653412397D+03
 CCSD(T)
 CCSD(T)= -0.29973282953D+03

 The electronic state is 4-A".
 Alpha  occ. eigenvalues --  -20.53400 -20.42769 -20.34912 -20.23054  -1.66479
 Alpha  occ. eigenvalues --   -1.40544  -1.06625  -0.79457  -0.69024  -0.65071
 Alpha  occ. eigenvalues --   -0.57123  -0.43907  -0.41741  -0.23963  -0.20628
 Alpha  occ. eigenvalues --   -0.14449  -0.09298   0.02547
 Alpha virt. eigenvalues --    0.67094   0.70343   0.83757   0.90669   0.94435
 Alpha virt. eigenvalues --    0.96765   0.99898   1.00911   1.09532   1.09887
 Alpha virt. eigenvalues --    1.11978   1.14507   1.17667   1.24936   1.33735

 Mulliken charges and spin densities:
               1          2
     1  O   -0.746809   0.171551
     2  O    0.021189   0.552007
     3  O    0.163922   1.430770
     4  O   -0.438302   0.845672
 Sum of Mulliken charges =  -1.00000   3.00000

 Dipole moment (field-independent basis, Debye):
    X=              2.3517    Y=              0.0541    Z=              0.0000  Tot=              2.3524
 Quadrupole moment (field-independent basis, Debye-Ang):
   XX=            -25.5354   YY=            -32.2772   ZZ=            -21.8001
   XY=             -3.6155   XZ=              0.0000   YZ=              0.0000

 79\CCSD(T)=-299.7328295\RMSD=4.968e-09\PG=CS [SG(O4)]\\@
 Normal termination of Gaussian 16 at Sat Feb 17 20:35:15 2024.
