 Gaussian 16, Revision A.03,
 Gaussian 16:  ES64L-G16RevA.03 25-Dec-2016

 -----------------------------------------------
 #p ROCCSD(T,MaxCyc=200)/cc-pVTZ SCF(MaxCyc=200)
 -----------------------------------------------

 ---------
 O2_O2_115
 ---------
 Symbolic Z-matrix:
 Charge = -1 Multiplicity = 4

                         Standard orientation:
 ---------------------------------------------------------------------
 Center     Atomic      Atomic             Coordinates (Angstroms)
 Number     Number       Type             X           Y           Z
 ---------------------------------------------------------------------
      1          8           0        0.615183   -2.165183   -0.000000
      2          8           0       -0.205061   -1.344939   -0.000000
      3          8           0       -0.205061    1.175061    0.000000
      4          8           0       -0.205061    2.335061    0.000000
 ---------------------------------------------------------------------

 SCF Done:  E(ROHF) =  -299.229994916     A.U. after   45 cycles
 E2 =    -0.9642823412D+00 EUMP2 =    -0.30019427725721D+03
 CCSD(T)
 CCSD(T)= -0.30020576613D+03

 The electronic state is 4-A".
 Alpha  occ. eigenvalues --  -20.43174 -20.42896 -20.41307 -20.40900  -1.44063
 Alpha  occ. eigenvalues --   -1.43638  -0.87369  -0.85632  -0.54492  -0.54106
 Alpha  occ. eigenvalues --   -0.52453  -0.51872  -0.49686  -0.46844  -0.21327
 Alpha  occ. eigenvalues --   -0.20629  -0.18819  -0.17778
 Alpha virt. eigenvalues --    0.65500   0.70288   0.89049   0.90352   0.92491
 Alpha virt. eigenvalues --    0.95184   0.95316   0.99677   1.01137   1.05170
 Alpha virt. eigenvalues --    1.06792   1.09902   1.11907   1.13323   1.13946

 Mulliken charges and spin densities:
               1          2
     1  O   -0.310678   0.680597
     2  O   -0.192797   0.816679
     3  O   -0.183247   0.816455
     4  O   -0.313278   0.686269
 Sum of Mulliken charges =  -1.00000   3.00000

 Dipole moment (field-independent basis, Debye):
    X=             -0.2204    Y=             -0.0279    Z=             -0.0000  Tot=              0.2221
 Quadrupole moment (field-independent basis, Debye-Ang):
   XX=            -22.6851   YY=            -41.8471   ZZ=            -22.5002
   XY=              3.3139   XZ=             -0.0000   YZ=             -0.0000

 11574\CCSD=-300.1678424\CCSD(T)=-300.2057661\RMSD=3.945e-09\PG=CS [SG(
 Normal termination of Gaussian 16 at Sat Feb 17 23:15:44 2024.
