 Gaussian 16, Revision A.03,
 Gaussian 16:  ES64L-G16RevA.03 25-Dec-2016

 -----------------------------------------------
 #p ROCCSD(T,MaxCyc=200)/cc-pVTZ SCF(MaxCyc=200)
 -----------------------------------------------

 -------
 O2_O2_7
 -------
 Symbolic Z-matrix:
 Charge = -1 Multiplicity = 4

                         Standard orientation:
 ---------------------------------------------------------------------
 Center     Atomic      Atomic             Coordinates (Angstroms)
 Number     Number       Type             X           Y           Z
 ---------------------------------------------------------------------
      1          8           0        0.615183   -1.445183    0.000000
      2          8           0       -0.205061   -0.624939    0.000000
      3          8           0       -0.205061    0.455061   -0.000000
      4          8           0       -0.205061    1.615061   -0.000000
 ---------------------------------------------------------------------

 SCF Done:  E(ROHF) =  -298.712132972     A.U. after   18 cycles
 E2 =    -0.9472826354D+00 EUMP2 =    -0.29965941560775D+03
 CCSD(T)
 CCSD(T)= -0.29968662743D+03

 The electronic state is 4-A".
 Alpha  occ. eigenvalues --  -20.47995 -20.45454 -20.34656 -20.26518  -1.65835
 Alpha  occ. eigenvalues --   -1.40524  -1.18464  -0.73078  -0.70151  -0.66931
 Alpha  occ. eigenvalues --   -0.57274  -0.44877  -0.43585  -0.23075  -0.22804
 Alpha  occ. eigenvalues --   -0.15148  -0.06660   0.06807
 Alpha virt. eigenvalues --    0.71010   0.77005   0.88738   0.89329   0.89455
 Alpha virt. eigenvalues --    0.94295   1.00967   1.02665   1.06253   1.10046
 Alpha virt. eigenvalues --    1.11041   1.17080   1.18270   1.23850   1.42376

 Mulliken charges and spin densities:
               1          2
     1  O   -0.707859   0.208020
     2  O    0.133976   0.614587
     3  O   -0.106854   1.083016
     4  O   -0.319263   1.094377
 Sum of Mulliken charges =  -1.00000   3.00000

 Dipole moment (field-independent basis, Debye):
    X=             -1.3704    Y=              0.8261    Z=              0.0000  Tot=              1.6001
 Quadrupole moment (field-independent basis, Debye-Ang):
   XX=            -23.5674   YY=            -38.0471   ZZ=            -21.6500
   XY=              4.0991   XZ=             -0.0000   YZ=              0.0000

 \CCSD=-299.6482402\CCSD(T)=-299.6866274\RMSD=6.851e-09\PG=CS [SG(O4)]\
 Normal termination of Gaussian 16 at Sat Feb 17 20:24:10 2024.
