 Gaussian 16, Revision A.03,
 Gaussian 16:  ES64L-G16RevA.03 25-Dec-2016

 -----------------------------------------------
 #p ROCCSD(T,MaxCyc=200)/cc-pVTZ SCF(MaxCyc=200)
 -----------------------------------------------

 --------
 O2_O2_86
 --------
 Symbolic Z-matrix:
 Charge = -1 Multiplicity = 4

                         Standard orientation:
 ---------------------------------------------------------------------
 Center     Atomic      Atomic             Coordinates (Angstroms)
 Number     Number       Type             X           Y           Z
 ---------------------------------------------------------------------
      1          8           0       -0.870000   -1.350000    0.000000
      2          8           0        0.290000   -1.350000    0.000000
      3          8           0        0.290000    0.770000    0.000000
      4          8           0        0.290000    1.930000    0.000000
 ---------------------------------------------------------------------

 SCF Done:  E(ROHF) =  -299.224542561     A.U. after   23 cycles
 E2 =    -0.9633847601D+00 EUMP2 =    -0.30018792732140D+03
 CCSD(T)
 CCSD(T)= -0.30020159460D+03

 The electronic state is 4-A'.
 Alpha  occ. eigenvalues --  -20.41177 -20.40653 -20.40422 -20.38713  -1.42832
 Alpha  occ. eigenvalues --   -1.41660  -0.86442  -0.83959  -0.53440  -0.53252
 Alpha  occ. eigenvalues --   -0.51749  -0.50417  -0.47464  -0.43133  -0.20124
 Alpha  occ. eigenvalues --   -0.18730  -0.17979  -0.15078
 Alpha virt. eigenvalues --    0.65834   0.71359   0.89604   0.94134   0.95499
 Alpha virt. eigenvalues --    0.96664   0.96720   1.01673   1.02896   1.04102
 Alpha virt. eigenvalues --    1.06179   1.10747   1.14475   1.16086   1.23606

 Mulliken charges and spin densities:
               1          2
     1  O   -0.278587   0.721313
     2  O   -0.218931   0.783025
     3  O   -0.154125   0.830599
     4  O   -0.348357   0.665063
 Sum of Mulliken charges =  -1.00000   3.00000

 Dipole moment (field-independent basis, Debye):
    X=              0.1781    Y=             -0.4220    Z=              0.0000  Tot=              0.4580
 Quadrupole moment (field-independent basis, Debye-Ang):
   XX=            -24.5150   YY=            -35.0977   ZZ=            -21.3320
   XY=             -2.2303   XZ=              0.0000   YZ=              0.0000

 07\CCSD(T)=-300.2015946\RMSD=1.925e-09\PG=CS [SG(O4)]\\@
 Normal termination of Gaussian 16 at Sat Feb 17 22:33:44 2024.
