 Gaussian 16, Revision A.03,
 Gaussian 16:  ES64L-G16RevA.03 25-Dec-2016

 -----------------------------------------------
 #p ROCCSD(T,MaxCyc=200)/cc-pVTZ SCF(MaxCyc=200)
 -----------------------------------------------

 --------
 O2_O2_76
 --------
 Symbolic Z-matrix:
 Charge = -1 Multiplicity = 4

                         Standard orientation:
 ---------------------------------------------------------------------
 Center     Atomic      Atomic             Coordinates (Angstroms)
 Number     Number       Type             X           Y           Z
 ---------------------------------------------------------------------
      1          8           0        0.615183   -1.905183    0.000000
      2          8           0       -0.205061   -1.084939    0.000000
      3          8           0       -0.205061    0.915062    0.000000
      4          8           0       -0.205061    2.075060    0.000000
 ---------------------------------------------------------------------

 SCF Done:  E(ROHF) =  -299.216451421     A.U. after   24 cycles
 E2 =    -0.9643164356D+00 EUMP2 =    -0.30018076785702D+03
 CCSD(T)
 CCSD(T)= -0.30019476065D+03

 The electronic state is 4-A".
 Alpha  occ. eigenvalues --  -20.42758 -20.41499 -20.40373 -20.38002  -1.43817
 Alpha  occ. eigenvalues --   -1.41877  -0.89045  -0.82681  -0.54523  -0.53585
 Alpha  occ. eigenvalues --   -0.52351  -0.49964  -0.49627  -0.42524  -0.20948
 Alpha  occ. eigenvalues --   -0.18860  -0.18218  -0.15411
 Alpha virt. eigenvalues --    0.68414   0.71534   0.89386   0.90870   0.95947
 Alpha virt. eigenvalues --    0.96926   0.98468   1.02192   1.03409   1.04386
 Alpha virt. eigenvalues --    1.07991   1.12376   1.17591   1.18538   1.21046

 Mulliken charges and spin densities:
               1          2
     1  O   -0.359301   0.624547
     2  O   -0.165078   0.852227
     3  O   -0.142766   0.837626
     4  O   -0.332855   0.685600
 Sum of Mulliken charges =  -1.00000   3.00000

 Dipole moment (field-independent basis, Debye):
    X=             -0.3924    Y=              0.3127    Z=             -0.0000  Tot=              0.5018
 Quadrupole moment (field-independent basis, Debye-Ang):
   XX=            -22.8303   YY=            -38.4702   ZZ=            -22.5191
   XY=              3.3093   XZ=              0.0000   YZ=              0.0000

 0334\CCSD=-300.1564852\CCSD(T)=-300.1947606\RMSD=7.312e-09\PG=CS [SG(O
 Normal termination of Gaussian 16 at Sat Feb 17 22:18:26 2024.
