 Gaussian 16, Revision A.03,
 Gaussian 16:  ES64L-G16RevA.03 25-Dec-2016

 -----------------------------------------------
 #p ROCCSD(T,MaxCyc=200)/cc-pVTZ SCF(MaxCyc=200)
 -----------------------------------------------

 --------
 O2_O2_29
 --------
 Symbolic Z-matrix:
 Charge = -1 Multiplicity = 4

                         Standard orientation:
 ---------------------------------------------------------------------
 Center     Atomic      Atomic             Coordinates (Angstroms)
 Number     Number       Type             X           Y           Z
 ---------------------------------------------------------------------
      1          8           0       -0.870000   -0.970000    0.000000
      2          8           0        0.290000   -0.970000    0.000000
      3          8           0        0.290000    0.390000    0.000000
      4          8           0        0.290000    1.550000    0.000000
 ---------------------------------------------------------------------

 SCF Done:  E(ROHF) =  -298.962855706     A.U. after   21 cycles
 E2 =    -0.9380156910D+00 EUMP2 =    -0.29990087139737D+03
 CCSD(T)
 CCSD(T)= -0.29993666517D+03

 The electronic state is 4-A".
 Alpha  occ. eigenvalues --  -20.48725 -20.34271 -20.34180 -20.29809  -1.53304
 Alpha  occ. eigenvalues --   -1.35048  -0.99603  -0.80936  -0.59829  -0.58135
 Alpha  occ. eigenvalues --   -0.52504  -0.45497  -0.42475  -0.27440  -0.21036
 Alpha  occ. eigenvalues --   -0.15331  -0.09244  -0.08753
 Alpha virt. eigenvalues --    0.64549   0.73420   0.84737   0.92304   0.94074
 Alpha virt. eigenvalues --    0.98148   1.02264   1.02879   1.04271   1.11182
 Alpha virt. eigenvalues --    1.13086   1.16333   1.16473   1.26117   1.30972

 Mulliken charges and spin densities:
               1          2
     1  O   -0.424224   0.492119
     2  O    0.112385   1.111068
     3  O   -0.188674   0.816708
     4  O   -0.499487   0.580105
 Sum of Mulliken charges =  -1.00000   3.00000

 Dipole moment (field-independent basis, Debye):
    X=              0.8942    Y=             -2.1021    Z=              0.0000  Tot=              2.2844
 Quadrupole moment (field-independent basis, Debye-Ang):
   XX=            -24.1595   YY=            -32.5092   ZZ=            -21.9426
   XY=             -3.2361   XZ=              0.0000   YZ=              0.0000

 29\CCSD(T)=-299.9366652\RMSD=6.658e-09\PG=CS [SG(O4)]\\@
 Normal termination of Gaussian 16 at Sat Feb 17 20:59:50 2024.
