 Gaussian 16, Revision A.03,
 Gaussian 16:  ES64L-G16RevA.03 25-Dec-2016

 -----------------------------------------------
 #p ROCCSD(T,MaxCyc=200)/cc-pVTZ SCF(MaxCyc=200)
 -----------------------------------------------

 ---------
 O2_O2_141
 ---------
 Symbolic Z-matrix:
 Charge = -1 Multiplicity = 4

                         Standard orientation:
 ---------------------------------------------------------------------
 Center     Atomic      Atomic             Coordinates (Angstroms)
 Number     Number       Type             X           Y           Z
 ---------------------------------------------------------------------
      1          8           0        0.000000    0.000000    2.600000
      2          8           0        0.000000    0.000000    1.440000
      3          8           0        0.000000    0.000000   -1.440000
      4          8           0        0.000000    0.000000   -2.600000
 ---------------------------------------------------------------------

 SCF Done:  E(ROHF) =  -299.228781837     A.U. after   13 cycles
 E2 =    -0.9645834918D+00 EUMP2 =    -0.30019336532906D+03
 CCSD(T)
 CCSD(T)= -0.30020355751D+03

 Unable to determine electronic state:  partially filled degenerate orbitals.
 Alpha  occ. eigenvalues --  -20.43616 -20.43615 -20.42111 -20.42111  -1.44633
 Alpha  occ. eigenvalues --   -1.44579  -0.87586  -0.86820  -0.55056  -0.54884
 Alpha  occ. eigenvalues --   -0.53010  -0.52826  -0.49945  -0.48257  -0.22078
 Alpha  occ. eigenvalues --   -0.21526  -0.19311  -0.18849
 Alpha virt. eigenvalues --    0.62531   0.71059   0.89242   0.89716   0.90940
 Alpha virt. eigenvalues --    0.92759   0.94046   0.99327   1.00533   1.02403
 Alpha virt. eigenvalues --    1.06793   1.08958   1.10308   1.11510   1.12547

 Mulliken charges and spin densities:
               1          2
     1  O   -0.301336   0.694542
     2  O   -0.198664   0.805458
     3  O   -0.198664   0.805458
     4  O   -0.301336   0.694542
 Sum of Mulliken charges =  -1.00000   3.00000

 Dipole moment (field-independent basis, Debye):
    X=             -0.0000    Y=              0.0000    Z=             -0.0000  Tot=              0.0000
 Quadrupole moment (field-independent basis, Debye-Ang):
   XX=            -22.4755   YY=            -21.3170   ZZ=            -47.8783
   XY=              0.0000   XZ=              0.0000   YZ=              0.0000

 Normal termination of Gaussian 16 at Sat Feb 17 23:49:18 2024.
