 Gaussian 16, Revision A.03,
 Gaussian 16:  ES64L-G16RevA.03 25-Dec-2016

 -----------------------------------------------
 #p ROCCSD(T,MaxCyc=200)/cc-pVTZ SCF(MaxCyc=200)
 -----------------------------------------------

 ---------
 O2_O2_128
 ---------
 Symbolic Z-matrix:
 Charge = -1 Multiplicity = 4

                         Standard orientation:
 ---------------------------------------------------------------------
 Center     Atomic      Atomic             Coordinates (Angstroms)
 Number     Number       Type             X           Y           Z
 ---------------------------------------------------------------------
      1          8           0       -0.870000   -1.630000    0.000000
      2          8           0        0.290000   -1.630000    0.000000
      3          8           0        0.290000    1.050000    0.000000
      4          8           0        0.290000    2.210000    0.000000
 ---------------------------------------------------------------------

 SCF Done:  E(ROHF) =  -299.233315850     A.U. after   30 cycles
 E2 =    -0.9638402021D+00 EUMP2 =    -0.30019715605197D+03
 CCSD(T)
 CCSD(T)= -0.30020876497D+03

 The electronic state is 4-A'.
 Alpha  occ. eigenvalues --  -20.42654 -20.42095 -20.42006 -20.40652  -1.43654
 Alpha  occ. eigenvalues --   -1.43386  -0.86577  -0.85887  -0.54162  -0.53670
 Alpha  occ. eigenvalues --   -0.52395  -0.51680  -0.48696  -0.47137  -0.21057
 Alpha  occ. eigenvalues --   -0.20532  -0.18564  -0.17387
 Alpha virt. eigenvalues --    0.64617   0.68472   0.89270   0.89885   0.92441
 Alpha virt. eigenvalues --    0.94710   0.95923   0.99736   1.01688   1.02914
 Alpha virt. eigenvalues --    1.05383   1.07555   1.07663   1.13484   1.17721

 Mulliken charges and spin densities:
               1          2
     1  O   -0.266947   0.732966
     2  O   -0.229647   0.770686
     3  O   -0.187636   0.817353
     4  O   -0.315770   0.678994
 Sum of Mulliken charges =  -1.00000   3.00000

 Dipole moment (field-independent basis, Debye):
    X=              0.0853    Y=             -0.3651    Z=              0.0000  Tot=              0.3749
 Quadrupole moment (field-independent basis, Debye-Ang):
   XX=            -24.4763   YY=            -38.5817   ZZ=            -21.3252
   XY=             -2.5596   XZ=              0.0000   YZ=              0.0000

 867\CCSD(T)=-300.208765\RMSD=6.497e-09\PG=CS [SG(O4)]\\@
 Normal termination of Gaussian 16 at Sat Feb 17 23:35:57 2024.
