 Gaussian 16, Revision A.03,
 Gaussian 16:  ES64L-G16RevA.03 25-Dec-2016

 -----------------------------------------------
 #p ROCCSD(T,MaxCyc=200)/cc-pVTZ SCF(MaxCyc=200)
 -----------------------------------------------

 ---------
 O2_O2_294
 ---------
 Symbolic Z-matrix:
 Charge = -1 Multiplicity = 4

                         Standard orientation:
 ---------------------------------------------------------------------
 Center     Atomic      Atomic             Coordinates (Angstroms)
 Number     Number       Type             X           Y           Z
 ---------------------------------------------------------------------
      1          8           0        0.000000    0.000000    3.620000
      2          8           0        0.000000    0.000000    2.460000
      3          8           0        0.000000    0.000000   -2.460000
      4          8           0        0.000000    0.000000   -3.620000
 ---------------------------------------------------------------------

 SCF Done:  E(ROHF) =  -299.223896781     A.U. after   13 cycles
 E2 =    -0.9658581003D+00 EUMP2 =    -0.30018975488104D+03
 CCSD(T)
 CCSD(T)= -0.30019692158D+03

 Unable to determine electronic state:  partially filled degenerate orbitals.
 Alpha  occ. eigenvalues --  -20.45296 -20.45296 -20.44702 -20.44702  -1.46707
 Alpha  occ. eigenvalues --   -1.46707  -0.89437  -0.89434  -0.57093  -0.57093
 Alpha  occ. eigenvalues --   -0.55056  -0.55055  -0.51417  -0.51402  -0.23986
 Alpha  occ. eigenvalues --   -0.23982  -0.21388  -0.21252
 Alpha virt. eigenvalues --    0.62029   0.63468   0.89642   0.89663   0.90896
 Alpha virt. eigenvalues --    0.90913   0.92650   0.93455   1.00868   1.00946
 Alpha virt. eigenvalues --    1.02119   1.02170   1.03125   1.03840   1.10629

 Mulliken charges and spin densities:
               1          2
     1  O   -0.273569   0.724738
     2  O   -0.226431   0.775262
     3  O   -0.226431   0.775262
     4  O   -0.273569   0.724738
 Sum of Mulliken charges =  -1.00000   3.00000

 Dipole moment (field-independent basis, Debye):
    X=             -0.0000    Y=              0.0000    Z=              0.0000  Tot=              0.0000
 Quadrupole moment (field-independent basis, Debye-Ang):
   XX=            -21.2995   YY=            -22.4149   ZZ=            -71.8166
   XY=              0.0000   XZ=              0.0000   YZ=              0.0000

 Normal termination of Gaussian 16 at Sun Feb 18 01:41:06 2024.
