 Gaussian 16, Revision A.03,
 Gaussian 16:  ES64L-G16RevA.03 25-Dec-2016

 -----------------------------------------------
 #p ROCCSD(T,MaxCyc=200)/cc-pVTZ SCF(MaxCyc=200)
 -----------------------------------------------

 --------
 O2_O2_46
 --------
 Symbolic Z-matrix:
 Charge = -1 Multiplicity = 4

                         Standard orientation:
 ---------------------------------------------------------------------
 Center     Atomic      Atomic             Coordinates (Angstroms)
 Number     Number       Type             X           Y           Z
 ---------------------------------------------------------------------
      1          8           0        0.615183   -1.705183    0.000000
      2          8           0       -0.205061   -0.884939    0.000000
      3          8           0       -0.205061    0.715061   -0.000000
      4          8           0       -0.205061    1.875061   -0.000000
 ---------------------------------------------------------------------

 SCF Done:  E(ROHF) =  -299.144420443     A.U. after   23 cycles
 E2 =    -0.9357040514D+00 EUMP2 =    -0.30008012449482D+03
 CCSD(T)
 CCSD(T)= -0.30011494595D+03

 The electronic state is 4-A".
 Alpha  occ. eigenvalues --  -20.51486 -20.42502 -20.30557 -20.30079  -1.50237
 Alpha  occ. eigenvalues --   -1.34376  -0.97781  -0.77411  -0.59961  -0.59765
 Alpha  occ. eigenvalues --   -0.54612  -0.45017  -0.42024  -0.34510  -0.25323
 Alpha  occ. eigenvalues --   -0.21069  -0.11888  -0.07530
 Alpha virt. eigenvalues --    0.67119   0.75966   0.90150   0.90843   0.93238
 Alpha virt. eigenvalues --    0.98383   1.00134   1.00223   1.02961   1.05797
 Alpha virt. eigenvalues --    1.12665   1.15368   1.20599   1.23574   1.26669

 Mulliken charges and spin densities:
               1          2
     1  O   -0.342695   0.628875
     2  O    0.162242   1.220305
     3  O   -0.391092   0.531448
     4  O   -0.428455   0.619373
 Sum of Mulliken charges =  -1.00000   3.00000

 Dipole moment (field-independent basis, Debye):
    X=             -0.2019    Y=             -2.7985    Z=              0.0000  Tot=              2.8058
 Quadrupole moment (field-independent basis, Debye-Ang):
   XX=            -22.7654   YY=            -37.0704   ZZ=            -22.2766
   XY=              3.2313   XZ=             -0.0000   YZ=              0.0000

 361\CCSD=-300.076146\CCSD(T)=-300.1149459\RMSD=3.809e-09\PG=CS [SG(O4)
 Normal termination of Gaussian 16 at Sat Feb 17 21:29:05 2024.
