 Gaussian 16, Revision A.03,
 Gaussian 16:  ES64L-G16RevA.03 25-Dec-2016

 -----------------------------------------------
 #p ROCCSD(T,MaxCyc=200)/cc-pVTZ SCF(MaxCyc=200)
 -----------------------------------------------

 ---------
 O2_O2_109
 ---------
 Symbolic Z-matrix:
 Charge = -1 Multiplicity = 4

                         Standard orientation:
 ---------------------------------------------------------------------
 Center     Atomic      Atomic             Coordinates (Angstroms)
 Number     Number       Type             X           Y           Z
 ---------------------------------------------------------------------
      1          8           0        0.615183   -2.125183    0.000000
      2          8           0       -0.205061   -1.304939    0.000000
      3          8           0       -0.205061    1.135062   -0.000000
      4          8           0       -0.205061    2.295060   -0.000000
 ---------------------------------------------------------------------

 SCF Done:  E(ROHF) =  -299.229916139     A.U. after   25 cycles
 E2 =    -0.9642271215D+00 EUMP2 =    -0.30019414326086D+03
 CCSD(T)
 CCSD(T)= -0.30020593038D+03

 The electronic state is 4-A".
 Alpha  occ. eigenvalues --  -20.43098 -20.42749 -20.41145 -20.40601  -1.43973
 Alpha  occ. eigenvalues --   -1.43438  -0.87427  -0.85312  -0.54416  -0.53960
 Alpha  occ. eigenvalues --   -0.52374  -0.51656  -0.49718  -0.46403  -0.21231
 Alpha  occ. eigenvalues --   -0.20383  -0.18763  -0.17510
 Alpha virt. eigenvalues --    0.65987   0.70518   0.89002   0.90283   0.93302
 Alpha virt. eigenvalues --    0.95553   0.95563   1.00084   1.01307   1.05564
 Alpha virt. eigenvalues --    1.06619   1.11056   1.12112   1.14083   1.14506

 Mulliken charges and spin densities:
               1          2
     1  O   -0.315064   0.675518
     2  O   -0.189718   0.820717
     3  O   -0.178233   0.818988
     4  O   -0.316984   0.684777
 Sum of Mulliken charges =  -1.00000   3.00000

 Dipole moment (field-independent basis, Debye):
    X=             -0.2359    Y=             -0.0043    Z=              0.0000  Tot=              0.2359
 Quadrupole moment (field-independent basis, Debye-Ang):
   XX=            -22.6991   YY=            -41.2516   ZZ=            -22.5068
   XY=              3.2988   XZ=             -0.0000   YZ=              0.0000

 13312\CCSD=-300.1679798\CCSD(T)=-300.2059304\RMSD=6.180e-09\PG=CS [SG(
 Normal termination of Gaussian 16 at Sat Feb 17 23:08:04 2024.
