 Gaussian 16, Revision A.03,
 Gaussian 16:  ES64L-G16RevA.03 25-Dec-2016

 -----------------------------------------------
 #p ROCCSD(T,MaxCyc=200)/cc-pVTZ SCF(MaxCyc=200)
 -----------------------------------------------

 ---------
 O2_O2_189
 ---------
 Symbolic Z-matrix:
 Charge = -1 Multiplicity = 4

                         Standard orientation:
 ---------------------------------------------------------------------
 Center     Atomic      Atomic             Coordinates (Angstroms)
 Number     Number       Type             X           Y           Z
 ---------------------------------------------------------------------
      1          8           0        0.000000    0.000000    2.920000
      2          8           0        0.000000    0.000000    1.760000
      3          8           0        0.000000    0.000000   -1.760000
      4          8           0        0.000000    0.000000   -2.920000
 ---------------------------------------------------------------------

 SCF Done:  E(ROHF) =  -299.225558043     A.U. after   13 cycles
 E2 =    -0.9649082789D+00 EUMP2 =    -0.30019046632174D+03
 CCSD(T)
 CCSD(T)= -0.30019927806D+03

 Unable to determine electronic state:  partially filled degenerate orbitals.
 Alpha  occ. eigenvalues --  -20.44224 -20.44224 -20.43175 -20.43175  -1.45428
 Alpha  occ. eigenvalues --   -1.45419  -0.88165  -0.88007  -0.55821  -0.55786
 Alpha  occ. eigenvalues --   -0.53781  -0.53740  -0.50254  -0.49805  -0.22738
 Alpha  occ. eigenvalues --   -0.22595  -0.19996  -0.19973
 Alpha virt. eigenvalues --    0.58281   0.69713   0.88509   0.90364   0.91332
 Alpha virt. eigenvalues --    0.91613   0.92596   0.99898   1.00627   1.01801
 Alpha virt. eigenvalues --    1.03677   1.04082   1.05404   1.11059   1.11838

 Mulliken charges and spin densities:
               1          2
     1  O   -0.287221   0.708005
     2  O   -0.212779   0.791995
     3  O   -0.212779   0.791995
     4  O   -0.287221   0.708005
 Sum of Mulliken charges =  -1.00000   3.00000

 Dipole moment (field-independent basis, Debye):
    X=             -0.0000    Y=              0.0000    Z=              0.0000  Tot=              0.0000
 Quadrupole moment (field-independent basis, Debye-Ang):
   XX=            -22.4377   YY=            -21.3079   ZZ=            -54.2641
   XY=              0.0000   XZ=              0.0000   YZ=              0.0000

 8\PMP2-0=-300.1904663\MP4SDQ=-300.1646239\CCSD=-300.1616395\CCSD(T)=-3
 Normal termination of Gaussian 16 at Sun Feb 18 00:40:11 2024.
