 Gaussian 16, Revision A.03,
 Gaussian 16:  ES64L-G16RevA.03 25-Dec-2016

 -----------------------------------------------
 #p ROCCSD(T,MaxCyc=200)/cc-pVTZ SCF(MaxCyc=200)
 -----------------------------------------------

 --------
 O2_O2_17
 --------
 Symbolic Z-matrix:
 Charge = -1 Multiplicity = 4

                         Standard orientation:
 ---------------------------------------------------------------------
 Center     Atomic      Atomic             Coordinates (Angstroms)
 Number     Number       Type             X           Y           Z
 ---------------------------------------------------------------------
      1          8           0       -0.870000   -0.890000    0.000000
      2          8           0        0.290000   -0.890000    0.000000
      3          8           0        0.290000    0.310000    0.000000
      4          8           0        0.290000    1.470000    0.000000
 ---------------------------------------------------------------------

 SCF Done:  E(ROHF) =  -298.791917373     A.U. after   23 cycles
 E2 =    -0.9714867503D+00 EUMP2 =    -0.29976340412356D+03
 CCSD(T)
 CCSD(T)= -0.29978190402D+03

 The electronic state is 4-A".
 Alpha  occ. eigenvalues --  -20.48818 -20.45119 -20.33845 -20.24823  -1.62781
 Alpha  occ. eigenvalues --   -1.39237  -1.05320  -0.79678  -0.65905  -0.63036
 Alpha  occ. eigenvalues --   -0.56376  -0.44552  -0.42854  -0.23832  -0.18806
 Alpha  occ. eigenvalues --   -0.14963  -0.10963  -0.00062
 Alpha virt. eigenvalues --    0.66524   0.70738   0.83940   0.91297   0.94639
 Alpha virt. eigenvalues --    0.97056   1.00890   1.01090   1.08536   1.10107
 Alpha virt. eigenvalues --    1.13001   1.14757   1.15688   1.24960   1.33066

 Mulliken charges and spin densities:
               1          2
     1  O   -0.691543   0.213112
     2  O    0.068457   0.779952
     3  O    0.088427   1.274711
     4  O   -0.465341   0.732226
 Sum of Mulliken charges =  -1.00000   3.00000

 Dipole moment (field-independent basis, Debye):
    X=              2.1248    Y=             -0.3462    Z=              0.0000  Tot=              2.1528
 Quadrupole moment (field-independent basis, Debye-Ang):
   XX=            -25.2701   YY=            -32.3114   ZZ=            -21.8386
   XY=             -3.6580   XZ=              0.0000   YZ=              0.0000

 5\CCSD(T)=-299.781904\RMSD=3.966e-09\PG=CS [SG(O4)]\\@
 Normal termination of Gaussian 16 at Sat Feb 17 20:40:19 2024.
