 Gaussian 16, Revision A.03,
 Gaussian 16:  ES64L-G16RevA.03 25-Dec-2016

 -----------------------------------------------
 #p ROCCSD(T,MaxCyc=200)/cc-pVTZ SCF(MaxCyc=200)
 -----------------------------------------------

 ---------
 O2_O2_145
 ---------
 Symbolic Z-matrix:
 Charge = -1 Multiplicity = 4

                         Standard orientation:
 ---------------------------------------------------------------------
 Center     Atomic      Atomic             Coordinates (Angstroms)
 Number     Number       Type             X           Y           Z
 ---------------------------------------------------------------------
      1          8           0        0.615183   -2.365183   -0.000000
      2          8           0       -0.205061   -1.544939   -0.000000
      3          8           0       -0.205061    1.375061    0.000000
      4          8           0       -0.205061    2.535061    0.000000
 ---------------------------------------------------------------------

 SCF Done:  E(ROHF) =  -299.228240301     A.U. after   22 cycles
 E2 =    -0.9645487348D+00 EUMP2 =    -0.30019278903556D+03
 CCSD(T)
 CCSD(T)= -0.30020303906D+03

 The electronic state is 4-A".
 Alpha  occ. eigenvalues --  -20.43545 -20.43472 -20.42069 -20.42041  -1.44561
 Alpha  occ. eigenvalues --   -1.44447  -0.87476  -0.86827  -0.54962  -0.54812
 Alpha  occ. eigenvalues --   -0.52929  -0.52737  -0.49709  -0.48423  -0.21841
 Alpha  occ. eigenvalues --   -0.21568  -0.19213  -0.18834
 Alpha virt. eigenvalues --    0.62651   0.69148   0.88309   0.90309   0.91061
 Alpha virt. eigenvalues --    0.93802   0.94179   0.98446   1.01026   1.03395
 Alpha virt. eigenvalues --    1.05486   1.07020   1.09519   1.11015   1.12714

 Mulliken charges and spin densities:
               1          2
     1  O   -0.295398   0.698401
     2  O   -0.204583   0.801307
     3  O   -0.200588   0.805237
     4  O   -0.299431   0.695055
 Sum of Mulliken charges =  -1.00000   3.00000

 Dipole moment (field-independent basis, Debye):
    X=             -0.1661    Y=             -0.0908    Z=              0.0000  Tot=              0.1893
 Quadrupole moment (field-independent basis, Debye-Ang):
   XX=            -22.6366   YY=            -45.1433   ZZ=            -22.4683
   XY=              3.4216   XZ=              0.0000   YZ=             -0.0000

 797\CCSD=-300.1652239\CCSD(T)=-300.2030391\RMSD=9.882e-09\PG=CS [SG(O4
 Normal termination of Gaussian 16 at Sat Feb 17 23:52:39 2024.
