 Gaussian 16, Revision A.03,
 Gaussian 16:  ES64L-G16RevA.03 25-Dec-2016

 -----------------------------------------------
 #p ROCCSD(T,MaxCyc=200)/cc-pVTZ SCF(MaxCyc=200)
 -----------------------------------------------

 --------
 O2_O2_33
 --------
 Symbolic Z-matrix:
 Charge = -1 Multiplicity = 4

                         Standard orientation:
 ---------------------------------------------------------------------
 Center     Atomic      Atomic             Coordinates (Angstroms)
 Number     Number       Type             X           Y           Z
 ---------------------------------------------------------------------
      1          8           0        0.000000    0.000000    1.880000
      2          8           0        0.000000    0.000000    0.720000
      3          8           0        0.000000    0.000000   -0.720000
      4          8           0        0.000000    0.000000   -1.880000
 ---------------------------------------------------------------------

 SCF Done:  E(ROHF) =  -299.020778587     A.U. after   13 cycles
 E2 =    -0.9704758663D+00 EUMP2 =    -0.29999125445374D+03
 CCSD(T)
 CCSD(T)= -0.30000920892D+03

 Unable to determine electronic state:  an orbital has unidentified symmetry.
 Alpha  occ. eigenvalues --  -20.37893 -20.37890 -20.36245 -20.36245  -1.43792
 Alpha  occ. eigenvalues --   -1.39315  -0.99946  -0.75528  -0.55282  -0.54848
 Alpha  occ. eigenvalues --   -0.53307  -0.48830  -0.46714  -0.23938  -0.23226
 Alpha  occ. eigenvalues --   -0.20131  -0.12616  -0.10215
 Alpha virt. eigenvalues --    0.71065   0.72403   0.92316   0.93437   0.96380
 Alpha virt. eigenvalues --    0.96854   0.98748   1.01924   1.06259   1.07763
 Alpha virt. eigenvalues --    1.12661   1.22332   1.24439   1.25262   1.33462

 Mulliken charges and spin densities:
               1          2
     1  O   -0.351164   0.723072
     2  O   -0.148836   0.776928
     3  O   -0.148836   0.776928
     4  O   -0.351164   0.723072
 Sum of Mulliken charges =  -1.00000   3.00000

 Dipole moment (field-independent basis, Debye):
    X=             -0.0000    Y=             -0.0000    Z=             -0.0000  Tot=              0.0000
 Quadrupole moment (field-independent basis, Debye-Ang):
   XX=            -21.1329   YY=            -22.3062   ZZ=            -38.6917
   XY=              0.0000   XZ=              0.0000   YZ=              0.0000

 86\PMP2-0=-299.9912545\MP4SDQ=-299.9735376\CCSD=-299.9693342\CCSD(T)=-
 Normal termination of Gaussian 16 at Sat Feb 17 21:07:45 2024.
