 Gaussian 16, Revision A.03,
 Gaussian 16:  ES64L-G16RevA.03 25-Dec-2016

 -----------------------------------------------
 #p ROCCSD(T,MaxCyc=200)/cc-pVTZ SCF(MaxCyc=200)
 -----------------------------------------------

 ---------
 O2_O2_237
 ---------
 Symbolic Z-matrix:
 Charge = -1 Multiplicity = 4

                         Standard orientation:
 ---------------------------------------------------------------------
 Center     Atomic      Atomic             Coordinates (Angstroms)
 Number     Number       Type             X           Y           Z
 ---------------------------------------------------------------------
      1          8           0        0.000000    0.000000    3.240000
      2          8           0        0.000000    0.000000    2.080000
      3          8           0        0.000000    0.000000   -2.080000
      4          8           0        0.000000    0.000000   -3.240000
 ---------------------------------------------------------------------

 SCF Done:  E(ROHF) =  -299.223741268     A.U. after   13 cycles
 E2 =    -0.9652665356D+00 EUMP2 =    -0.30018900780378D+03
 CCSD(T)
 CCSD(T)= -0.30019694225D+03

 Unable to determine electronic state:  partially filled degenerate orbitals.
 Alpha  occ. eigenvalues --  -20.44717 -20.44717 -20.43954 -20.43954  -1.46060
 Alpha  occ. eigenvalues --   -1.46059  -0.88781  -0.88752  -0.56450  -0.56443
 Alpha  occ. eigenvalues --   -0.54412  -0.54407  -0.50785  -0.50673  -0.23340
 Alpha  occ. eigenvalues --   -0.23310  -0.20749  -0.20584
 Alpha virt. eigenvalues --    0.59939   0.66580   0.90167   0.90374   0.91106
 Alpha virt. eigenvalues --    0.91422   0.91624   0.96223   1.01177   1.01953
 Alpha virt. eigenvalues --    1.02480   1.02886   1.03129   1.06767   1.11245

 Mulliken charges and spin densities:
               1          2
     1  O   -0.280448   0.717120
     2  O   -0.219552   0.782880
     3  O   -0.219552   0.782880
     4  O   -0.280448   0.717120
 Sum of Mulliken charges =  -1.00000   3.00000

 Dipole moment (field-independent basis, Debye):
    X=             -0.0000    Y=              0.0000    Z=             -0.0000  Tot=              0.0000
 Quadrupole moment (field-independent basis, Debye-Ang):
   XX=            -21.3021   YY=            -22.4145   ZZ=            -61.7071
   XY=              0.0000   XZ=              0.0000   YZ=              0.0000

 Normal termination of Gaussian 16 at Sun Feb 18 01:11:00 2024.
