 Gaussian 16, Revision A.03,
 Gaussian 16:  ES64L-G16RevA.03 25-Dec-2016

 -----------------------------------------------
 #p ROCCSD(T,MaxCyc=200)/cc-pVTZ SCF(MaxCyc=200)
 -----------------------------------------------

 --------
 O2_O2_59
 --------
 Symbolic Z-matrix:
 Charge = -1 Multiplicity = 4

                         Standard orientation:
 ---------------------------------------------------------------------
 Center     Atomic      Atomic             Coordinates (Angstroms)
 Number     Number       Type             X           Y           Z
 ---------------------------------------------------------------------
      1          8           0       -0.870000   -1.170000    0.000000
      2          8           0        0.290000   -1.170000    0.000000
      3          8           0        0.290000    0.590000    0.000000
      4          8           0        0.290000    1.750000    0.000000
 ---------------------------------------------------------------------

 SCF Done:  E(ROHF) =  -299.168617924     A.U. after   39 cycles
 E2 =    -0.9634425389D+00 EUMP2 =    -0.30013206046322D+03
 CCSD(T)
 CCSD(T)= -0.30014816158D+03

 The electronic state is 4-A'.
 Alpha  occ. eigenvalues --  -20.40330 -20.38121 -20.37796 -20.37643  -1.43218
 Alpha  occ. eigenvalues --   -1.39796  -0.88740  -0.81527  -0.55143  -0.53686
 Alpha  occ. eigenvalues --   -0.50690  -0.49626  -0.45429  -0.37406  -0.19928
 Alpha  occ. eigenvalues --   -0.17362  -0.16694  -0.12484
 Alpha virt. eigenvalues --    0.66866   0.72106   0.91359   0.92211   0.96063
 Alpha virt. eigenvalues --    0.96742   0.98207   1.04901   1.05391   1.07253
 Alpha virt. eigenvalues --    1.07693   1.12082   1.14939   1.23758   1.26426

 Mulliken charges and spin densities:
               1          2
     1  O   -0.305742   0.694823
     2  O   -0.224152   0.758834
     3  O   -0.109899   0.867451
     4  O   -0.360208   0.678892
 Sum of Mulliken charges =  -1.00000   3.00000

 Dipole moment (field-independent basis, Debye):
    X=              0.3944    Y=             -0.1267    Z=              0.0000  Tot=              0.4143
 Quadrupole moment (field-independent basis, Debye-Ang):
   XX=            -24.5041   YY=            -33.6160   ZZ=            -21.2838
   XY=             -2.0717   XZ=              0.0000   YZ=              0.0000

 43\CCSD(T)=-300.1481616\RMSD=2.404e-09\PG=CS [SG(O4)]\\@
 Normal termination of Gaussian 16 at Sat Feb 17 21:50:52 2024.
