 Gaussian 16, Revision A.03,
 Gaussian 16:  ES64L-G16RevA.03 25-Dec-2016

 -----------------------------------------------
 #p ROCCSD(T,MaxCyc=200)/cc-pVTZ SCF(MaxCyc=200)
 -----------------------------------------------

 ---------
 O2_O2_132
 ---------
 Symbolic Z-matrix:
 Charge = -1 Multiplicity = 4

                         Standard orientation:
 ---------------------------------------------------------------------
 Center     Atomic      Atomic             Coordinates (Angstroms)
 Number     Number       Type             X           Y           Z
 ---------------------------------------------------------------------
      1          8           0        0.000000    0.000000    2.540000
      2          8           0        0.000000    0.000000    1.380000
      3          8           0        0.000000    0.000000   -1.380000
      4          8           0        0.000000    0.000000   -2.540000
 ---------------------------------------------------------------------

 SCF Done:  E(ROHF) =  -299.229595315     A.U. after   13 cycles
 E2 =    -0.9645055623D+00 EUMP2 =    -0.30019410087694D+03
 CCSD(T)
 CCSD(T)= -0.30020463220D+03

 Unable to determine electronic state:  partially filled degenerate orbitals.
 Alpha  occ. eigenvalues --  -20.43483 -20.43482 -20.41865 -20.41865  -1.44465
 Alpha  occ. eigenvalues --   -1.44388  -0.87527  -0.86500  -0.54901  -0.54671
 Alpha  occ. eigenvalues --   -0.52854  -0.52609  -0.49969  -0.47813  -0.21961
 Alpha  occ. eigenvalues --   -0.21258  -0.19188  -0.18566
 Alpha virt. eigenvalues --    0.63792   0.71159   0.89496   0.90091   0.90713
 Alpha virt. eigenvalues --    0.93061   0.94355   0.99184   1.00405   1.02800
 Alpha virt. eigenvalues --    1.07748   1.10226   1.11524   1.11579   1.12689

 Mulliken charges and spin densities:
               1          2
     1  O   -0.305791   0.691384
     2  O   -0.194209   0.808616
     3  O   -0.194209   0.808616
     4  O   -0.305791   0.691384
 Sum of Mulliken charges =  -1.00000   3.00000

 Dipole moment (field-independent basis, Debye):
    X=             -0.0000    Y=              0.0000    Z=              0.0000  Tot=              0.0000
 Quadrupole moment (field-independent basis, Debye-Ang):
   XX=            -21.3193   YY=            -22.4855   ZZ=            -46.8015
   XY=              0.0000   XZ=              0.0000   YZ=              0.0000

 Normal termination of Gaussian 16 at Sat Feb 17 23:41:48 2024.
