 Gaussian 16, Revision A.03,
 Gaussian 16:  ES64L-G16RevA.03 25-Dec-2016

 -----------------------------------------------
 #p ROCCSD(T,MaxCyc=200)/cc-pVTZ SCF(MaxCyc=200)
 -----------------------------------------------

 --------
 O2_O2_55
 --------
 Symbolic Z-matrix:
 Charge = -1 Multiplicity = 4

                         Standard orientation:
 ---------------------------------------------------------------------
 Center     Atomic      Atomic             Coordinates (Angstroms)
 Number     Number       Type             X           Y           Z
 ---------------------------------------------------------------------
      1          8           0        0.615183   -1.765183    0.000000
      2          8           0       -0.205061   -0.944939    0.000000
      3          8           0       -0.205061    0.775061   -0.000000
      4          8           0       -0.205061    1.935061   -0.000000
 ---------------------------------------------------------------------

 SCF Done:  E(ROHF) =  -299.185144773     A.U. after   27 cycles
 E2 =    -0.9328340285D+00 EUMP2 =    -0.30011797880143D+03
 CCSD(T)
 CCSD(T)= -0.30015218796D+03

 The electronic state is 4-A".
 Alpha  occ. eigenvalues --  -20.53126 -20.45652 -20.29201 -20.28538  -1.51741
 Alpha  occ. eigenvalues --   -1.32675  -0.96638  -0.77018  -0.61226  -0.61189
 Alpha  occ. eigenvalues --   -0.55460  -0.43658  -0.40477  -0.35962  -0.27237
 Alpha  occ. eigenvalues --   -0.24073  -0.10474  -0.06223
 Alpha virt. eigenvalues --    0.65403   0.76706   0.88819   0.89409   0.93459
 Alpha virt. eigenvalues --    0.97653   0.99375   0.99451   1.03068   1.05471
 Alpha virt. eigenvalues --    1.13443   1.16395   1.20726   1.22640   1.25526

 Mulliken charges and spin densities:
               1          2
     1  O   -0.287446   0.686670
     2  O    0.156860   1.219821
     3  O   -0.424894   0.502949
     4  O   -0.444520   0.590559
 Sum of Mulliken charges =  -1.00000   3.00000

 Dipole moment (field-independent basis, Debye):
    X=             -0.0243    Y=             -3.7386    Z=              0.0000  Tot=              3.7387
 Quadrupole moment (field-independent basis, Debye-Ang):
   XX=            -22.5999   YY=            -37.4363   ZZ=            -22.3480
   XY=              3.1213   XZ=              0.0000   YZ=              0.0000

 2123\CCSD=-300.1141092\CCSD(T)=-300.152188\RMSD=7.686e-09\PG=CS [SG(O4
 Normal termination of Gaussian 16 at Sat Feb 17 21:44:21 2024.
