 Gaussian 16, Revision A.03,
 Gaussian 16:  ES64L-G16RevA.03 25-Dec-2016

 -----------------------------------------------
 #p ROCCSD(T,MaxCyc=200)/cc-pVTZ SCF(MaxCyc=200)
 -----------------------------------------------

 ---------
 O2_O2_157
 ---------
 Symbolic Z-matrix:
 Charge = -1 Multiplicity = 4

                         Standard orientation:
 ---------------------------------------------------------------------
 Center     Atomic      Atomic             Coordinates (Angstroms)
 Number     Number       Type             X           Y           Z
 ---------------------------------------------------------------------
      1          8           0        0.615183   -2.445183    0.000000
      2          8           0       -0.205061   -1.624939    0.000000
      3          8           0       -0.205061    1.455061   -0.000000
      4          8           0       -0.205061    2.615061   -0.000000
 ---------------------------------------------------------------------

 SCF Done:  E(ROHF) =  -299.227385591     A.U. after   18 cycles
 E2 =    -0.9646317114D+00 EUMP2 =    -0.30019201730263D+03
 CCSD(T)
 CCSD(T)= -0.30020186281D+03

 The electronic state is 4-A".
 Alpha  occ. eigenvalues --  -20.43690 -20.43659 -20.42389 -20.42345  -1.44763
 Alpha  occ. eigenvalues --   -1.44708  -0.87614  -0.87174  -0.55161  -0.55063
 Alpha  occ. eigenvalues --   -0.53132  -0.53009  -0.49794  -0.48863  -0.22046
 Alpha  occ. eigenvalues --   -0.21856  -0.19395  -0.19159
 Alpha virt. eigenvalues --    0.61549   0.68769   0.87745   0.90467   0.91336
 Alpha virt. eigenvalues --    0.93347   0.93755   0.98189   1.01231   1.02844
 Alpha virt. eigenvalues --    1.04627   1.06299   1.08171   1.10968   1.12483

 Mulliken charges and spin densities:
               1          2
     1  O   -0.291207   0.703361
     2  O   -0.208103   0.796733
     3  O   -0.204885   0.801407
     4  O   -0.295805   0.698498
 Sum of Mulliken charges =  -1.00000   3.00000

 Dipole moment (field-independent basis, Debye):
    X=             -0.1510    Y=             -0.1011    Z=              0.0000  Tot=              0.1817
 Quadrupole moment (field-independent basis, Debye-Ang):
   XX=            -22.6237   YY=            -46.5938   ZZ=            -22.4578
   XY=              3.4738   XZ=             -0.0000   YZ=              0.0000

 71922\CCSD=-300.164091\CCSD(T)=-300.2018628\RMSD=4.595e-09\PG=CS [SG(O
 Normal termination of Gaussian 16 at Sun Feb 18 00:07:31 2024.
