 Gaussian 16, Revision A.03,
 Gaussian 16:  ES64L-G16RevA.03 25-Dec-2016

 -----------------------------------------------
 #p ROCCSD(T,MaxCyc=200)/cc-pVTZ SCF(MaxCyc=200)
 -----------------------------------------------

 ---------
 O2_O2_150
 ---------
 Symbolic Z-matrix:
 Charge = -1 Multiplicity = 4

                         Standard orientation:
 ---------------------------------------------------------------------
 Center     Atomic      Atomic             Coordinates (Angstroms)
 Number     Number       Type             X           Y           Z
 ---------------------------------------------------------------------
      1          8           0        0.000000    0.000000    2.660000
      2          8           0        0.000000    0.000000    1.500000
      3          8           0        0.000000    0.000000   -1.500000
      4          8           0        0.000000    0.000000   -2.660000
 ---------------------------------------------------------------------

 SCF Done:  E(ROHF) =  -299.227998820     A.U. after   13 cycles
 E2 =    -0.9646502536D+00 EUMP2 =    -0.30019264907349D+03
 CCSD(T)
 CCSD(T)= -0.30020253171D+03

 Unable to determine electronic state:  partially filled degenerate orbitals.
 Alpha  occ. eigenvalues --  -20.43740 -20.43739 -20.42340 -20.42340  -1.44794
 Alpha  occ. eigenvalues --   -1.44756  -0.87671  -0.87100  -0.55208  -0.55080
 Alpha  occ. eigenvalues --   -0.53163  -0.53024  -0.49957  -0.48638  -0.22199
 Alpha  occ. eigenvalues --   -0.21767  -0.19438  -0.19104
 Alpha virt. eigenvalues --    0.61326   0.70935   0.88657   0.89921   0.91153
 Alpha virt. eigenvalues --    0.92465   0.93745   0.99535   1.00729   1.02009
 Alpha virt. eigenvalues --    1.05983   1.07791   1.09135   1.11480   1.12407

 Mulliken charges and spin densities:
               1          2
     1  O   -0.297534   0.697495
     2  O   -0.202466   0.802505
     3  O   -0.202466   0.802505
     4  O   -0.297534   0.697495
 Sum of Mulliken charges =  -1.00000   3.00000

 Dipole moment (field-independent basis, Debye):
    X=             -0.0000    Y=              0.0000    Z=              0.0000  Tot=              0.0000
 Quadrupole moment (field-independent basis, Debye-Ang):
   XX=            -21.3149   YY=            -22.4664   ZZ=            -48.9947
   XY=              0.0000   XZ=              0.0000   YZ=              0.0000

 88\PMP2-0=-300.1926491\MP4SDQ=-300.167933\CCSD=-300.1647984\CCSD(T)=-3
 Normal termination of Gaussian 16 at Sat Feb 17 23:56:59 2024.
