 Gaussian 16, Revision A.03,
 Gaussian 16:  ES64L-G16RevA.03 25-Dec-2016

 -----------------------------------------------
 #p ROCCSD(T,MaxCyc=200)/cc-pVTZ SCF(MaxCyc=200)
 -----------------------------------------------

 ---------
 O2_O2_116
 ---------
 Symbolic Z-matrix:
 Charge = -1 Multiplicity = 4

                         Standard orientation:
 ---------------------------------------------------------------------
 Center     Atomic      Atomic             Coordinates (Angstroms)
 Number     Number       Type             X           Y           Z
 ---------------------------------------------------------------------
      1          8           0       -0.870000   -1.550000    0.000000
      2          8           0        0.290000   -1.550000    0.000000
      3          8           0        0.290000    0.970000    0.000000
      4          8           0        0.290000    2.130000    0.000000
 ---------------------------------------------------------------------

 SCF Done:  E(ROHF) =  -299.233813897     A.U. after   26 cycles
 E2 =    -0.9636563848D+00 EUMP2 =    -0.30019747028209D+03
 CCSD(T)
 CCSD(T)= -0.30020964153D+03

 The electronic state is 4-A'.
 Alpha  occ. eigenvalues --  -20.42353 -20.41744 -20.41665 -20.40184  -1.43384
 Alpha  occ. eigenvalues --   -1.42995  -0.86390  -0.85457  -0.53922  -0.53239
 Alpha  occ. eigenvalues --   -0.52416  -0.51337  -0.48420  -0.46353  -0.20782
 Alpha  occ. eigenvalues --   -0.20122  -0.18396  -0.16845
 Alpha virt. eigenvalues --    0.64974   0.69503   0.89081   0.91331   0.93651
 Alpha virt. eigenvalues --    0.95250   0.96202   1.00144   1.00629   1.03202
 Alpha virt. eigenvalues --    1.05644   1.08563   1.09241   1.13734   1.19636

 Mulliken charges and spin densities:
               1          2
     1  O   -0.269448   0.730105
     2  O   -0.227116   0.774028
     3  O   -0.179948   0.821663
     4  O   -0.323488   0.674204
 Sum of Mulliken charges =  -1.00000   3.00000

 Dipole moment (field-independent basis, Debye):
    X=              0.1043    Y=             -0.3815    Z=              0.0000  Tot=              0.3955
 Quadrupole moment (field-independent basis, Debye-Ang):
   XX=            -24.4933   YY=            -37.4662   ZZ=            -21.3293
   XY=             -2.4600   XZ=              0.0000   YZ=              0.0000

 77\CCSD(T)=-300.2096415\RMSD=1.227e-09\PG=CS [SG(O4)]\\@
 Normal termination of Gaussian 16 at Sat Feb 17 23:17:23 2024.
