 Gaussian 16, Revision A.03,
 Gaussian 16:  ES64L-G16RevA.03 25-Dec-2016

 -----------------------------------------------
 #p ROCCSD(T,MaxCyc=200)/cc-pVTZ SCF(MaxCyc=200)
 -----------------------------------------------

 ---------
 O2_O2_153
 ---------
 Symbolic Z-matrix:
 Charge = -1 Multiplicity = 4

                         Standard orientation:
 ---------------------------------------------------------------------
 Center     Atomic      Atomic             Coordinates (Angstroms)
 Number     Number       Type             X           Y           Z
 ---------------------------------------------------------------------
      1          8           0        0.000000    0.000000    2.680000
      2          8           0        0.000000    0.000000    1.520000
      3          8           0        0.000000    0.000000   -1.520000
      4          8           0        0.000000    0.000000   -2.680000
 ---------------------------------------------------------------------

 SCF Done:  E(ROHF) =  -299.227752750     A.U. after   13 cycles
 E2 =    -0.9646709510D+00 EUMP2 =    -0.30019242370129D+03
 CCSD(T)
 CCSD(T)= -0.30020220915D+03

 Unable to determine electronic state:  partially filled degenerate orbitals.
 Alpha  occ. eigenvalues --  -20.43779 -20.43779 -20.42413 -20.42413  -1.44847
 Alpha  occ. eigenvalues --   -1.44813  -0.87703  -0.87185  -0.55258  -0.55142
 Alpha  occ. eigenvalues --   -0.53213  -0.53087  -0.49968  -0.48752  -0.22240
 Alpha  occ. eigenvalues --   -0.21842  -0.19481  -0.19183
 Alpha virt. eigenvalues --    0.60950   0.70885   0.88516   0.89983   0.91217
 Alpha virt. eigenvalues --    0.92370   0.93648   0.99615   1.00805   1.01874
 Alpha virt. eigenvalues --    1.05740   1.07427   1.08769   1.11466   1.12361

 Mulliken charges and spin densities:
               1          2
     1  O   -0.296404   0.698433
     2  O   -0.203596   0.801567
     3  O   -0.203596   0.801567
     4  O   -0.296404   0.698433
 Sum of Mulliken charges =  -1.00000   3.00000

 Dipole moment (field-independent basis, Debye):
    X=             -0.0000    Y=              0.0000    Z=             -0.0000  Tot=              0.0000
 Quadrupole moment (field-independent basis, Debye-Ang):
   XX=            -21.3142   YY=            -22.4635   ZZ=            -49.3754
   XY=              0.0000   XZ=              0.0000   YZ=              0.0000

 528\PMP2-0=-300.1924237\MP4SDQ=-300.1676045\CCSD=-300.1644838\CCSD(T)=
 Normal termination of Gaussian 16 at Sun Feb 18 00:00:08 2024.
