 Gaussian 16, Revision A.03,
 Gaussian 16:  ES64L-G16RevA.03 25-Dec-2016

 -----------------------------------------------
 #p ROCCSD(T,MaxCyc=200)/cc-pVTZ SCF(MaxCyc=200)
 -----------------------------------------------

 ---------
 O2_O2_190
 ---------
 Symbolic Z-matrix:
 Charge = -1 Multiplicity = 4

                         Standard orientation:
 ---------------------------------------------------------------------
 Center     Atomic      Atomic             Coordinates (Angstroms)
 Number     Number       Type             X           Y           Z
 ---------------------------------------------------------------------
      1          8           0        0.615183   -2.665183    0.000000
      2          8           0       -0.205061   -1.844939    0.000000
      3          8           0       -0.205061    1.675061   -0.000000
      4          8           0       -0.205061    2.835061   -0.000000
 ---------------------------------------------------------------------

 SCF Done:  E(ROHF) =  -299.225629448     A.U. after   23 cycles
 E2 =    -0.9648297904D+00 EUMP2 =    -0.30019045923811D+03
 CCSD(T)
 CCSD(T)= -0.30019938329D+03

 The electronic state is 4-A".
 Alpha  occ. eigenvalues --  -20.44097 -20.44096 -20.43149 -20.43033  -1.45312
 Alpha  occ. eigenvalues --   -1.45293  -0.88074  -0.87910  -0.55692  -0.55660
 Alpha  occ. eigenvalues --   -0.53675  -0.53620  -0.50143  -0.49759  -0.22583
 Alpha  occ. eigenvalues --   -0.22506  -0.19917  -0.19854
 Alpha virt. eigenvalues --    0.59982   0.67695   0.87942   0.90735   0.91698
 Alpha virt. eigenvalues --    0.92355   0.92737   0.97430   1.01885   1.01974
 Alpha virt. eigenvalues --    1.02883   1.04686   1.05369   1.10726   1.11961

 Mulliken charges and spin densities:
               1          2
     1  O   -0.283006   0.713382
     2  O   -0.215858   0.787055
     3  O   -0.212409   0.792639
     4  O   -0.288727   0.706924
 Sum of Mulliken charges =  -1.00000   3.00000

 Dipole moment (field-independent basis, Debye):
    X=             -0.1201    Y=             -0.1029    Z=             -0.0000  Tot=              0.1582
 Quadrupole moment (field-independent basis, Debye-Ang):
   XX=            -22.5991   YY=            -50.9375   ZZ=            -22.4365
   XY=              3.6325   XZ=             -0.0000   YZ=              0.0000

 115\CCSD=-300.1617356\CCSD(T)=-300.1993833\RMSD=1.647e-09\PG=CS [SG(O4
 Normal termination of Gaussian 16 at Sun Feb 18 00:41:50 2024.
