 Gaussian 16, Revision A.03,
 Gaussian 16:  ES64L-G16RevA.03 25-Dec-2016

 -----------------------------------------------
 #p ROCCSD(T,MaxCyc=200)/cc-pVTZ SCF(MaxCyc=200)
 -----------------------------------------------

 -------
 O2_O2_9
 -------
 Symbolic Z-matrix:
 Charge = -1 Multiplicity = 4

                         Standard orientation:
 ---------------------------------------------------------------------
 Center     Atomic      Atomic             Coordinates (Angstroms)
 Number     Number       Type             X           Y           Z
 ---------------------------------------------------------------------
      1          8           0        0.000000    0.000000    1.720000
      2          8           0        0.000000    0.000000    0.560000
      3          8           0        0.000000    0.000000   -0.560000
      4          8           0        0.000000    0.000000   -1.720000
 ---------------------------------------------------------------------

 SCF Done:  E(ROHF) =  -298.725333003     A.U. after   12 cycles
 E2 =    -0.9849620086D+00 EUMP2 =    -0.29971029501164D+03
 CCSD(T)
 CCSD(T)= -0.29972220008D+03

 The electronic state is 4-SGU.
 Alpha  occ. eigenvalues --  -20.50440 -20.50391 -20.29480 -20.29479  -1.63990
 Alpha  occ. eigenvalues --   -1.40418  -1.20366  -0.70232  -0.70232  -0.69109
 Alpha  occ. eigenvalues --   -0.56298  -0.46875  -0.46875  -0.21734  -0.21734
 Alpha  occ. eigenvalues --   -0.08572  -0.08572  -0.03439
 Alpha virt. eigenvalues --    0.67461   0.74301   0.83214   0.88749   0.88749
 Alpha virt. eigenvalues --    0.92921   1.00916   1.00916   1.09822   1.09822
 Alpha virt. eigenvalues --    1.11730   1.23577   1.23577   1.37580   1.40746

 Mulliken charges and spin densities:
               1          2
     1  O   -0.561787   0.381949
     2  O    0.061787   1.118051
     3  O    0.061787   1.118051
     4  O   -0.561787   0.381949
 Sum of Mulliken charges =  -1.00000   3.00000

 Dipole moment (field-independent basis, Debye):
    X=             -0.0000    Y=             -0.0000    Z=              0.0000  Tot=              0.0000
 Quadrupole moment (field-independent basis, Debye-Ang):
   XX=            -21.6639   YY=            -21.6639   ZZ=            -43.3709
   XY=             -0.0000   XZ=              0.0000   YZ=             -0.0000

 Normal termination of Gaussian 16 at Sat Feb 17 20:27:02 2024.
