 Gaussian 16, Revision A.03,
 Gaussian 16:  ES64L-G16RevA.03 25-Dec-2016

 -----------------------------------------------
 #p ROCCSD(T,MaxCyc=200)/cc-pVTZ SCF(MaxCyc=200)
 -----------------------------------------------

 ---------
 O2_O2_100
 ---------
 Symbolic Z-matrix:
 Charge = -1 Multiplicity = 4

                         Standard orientation:
 ---------------------------------------------------------------------
 Center     Atomic      Atomic             Coordinates (Angstroms)
 Number     Number       Type             X           Y           Z
 ---------------------------------------------------------------------
      1          8           0        0.615183   -2.065183    0.000000
      2          8           0       -0.205061   -1.244939    0.000000
      3          8           0       -0.205061    1.075061   -0.000000
      4          8           0       -0.205061    2.235061   -0.000000
 ---------------------------------------------------------------------

 SCF Done:  E(ROHF) =  -299.229056208     A.U. after   27 cycles
 E2 =    -0.9641627366D+00 EUMP2 =    -0.30019321894413D+03
 CCSD(T)
 CCSD(T)= -0.30020549547D+03

 The electronic state is 4-A".
 Alpha  occ. eigenvalues --  -20.42982 -20.42497 -20.40903 -20.40083  -1.43855
 Alpha  occ. eigenvalues --   -1.43103  -0.87605  -0.84759  -0.54330  -0.53756
 Alpha  occ. eigenvalues --   -0.52278  -0.51292  -0.49775  -0.45627  -0.21099
 Alpha  occ. eigenvalues --   -0.19956  -0.18705  -0.17057
 Alpha virt. eigenvalues --    0.66669   0.70835   0.88978   0.90274   0.94336
 Alpha virt. eigenvalues --    0.95915   0.96275   1.00779   1.01672   1.05934
 Alpha virt. eigenvalues --    1.06406   1.12309   1.13205   1.15173   1.15627

 Mulliken charges and spin densities:
               1          2
     1  O   -0.323026   0.666285
     2  O   -0.184508   0.827640
     3  O   -0.169693   0.823022
     4  O   -0.322773   0.683052
 Sum of Mulliken charges =  -1.00000   3.00000

 Dipole moment (field-independent basis, Debye):
    X=             -0.2641    Y=              0.0433    Z=              0.0000  Tot=              0.2676
 Quadrupole moment (field-independent basis, Debye-Ang):
   XX=            -22.7242   YY=            -40.4051   ZZ=            -22.5156
   XY=              3.2831   XZ=              0.0000   YZ=              0.0000

 09036\CCSD=-300.1674946\CCSD(T)=-300.2054955\RMSD=4.774e-09\PG=CS [SG(
 Normal termination of Gaussian 16 at Sat Feb 17 22:55:02 2024.
