 Gaussian 16, Revision A.03,
 Gaussian 16:  ES64L-G16RevA.03 25-Dec-2016

 -----------------------------------------------
 #p ROCCSD(T,MaxCyc=200)/cc-pVTZ SCF(MaxCyc=200)
 -----------------------------------------------

 ---------
 O2_O2_108
 ---------
 Symbolic Z-matrix:
 Charge = -1 Multiplicity = 4

                         Standard orientation:
 ---------------------------------------------------------------------
 Center     Atomic      Atomic             Coordinates (Angstroms)
 Number     Number       Type             X           Y           Z
 ---------------------------------------------------------------------
      1          8           0        0.000000    0.000000    2.380000
      2          8           0        0.000000    0.000000    1.220000
      3          8           0        0.000000    0.000000   -1.220000
      4          8           0        0.000000    0.000000   -2.380000
 ---------------------------------------------------------------------

 SCF Done:  E(ROHF) =  -299.230985347     A.U. after   13 cycles
 E2 =    -0.9642187709D+00 EUMP2 =    -0.30019520411837D+03
 CCSD(T)
 CCSD(T)= -0.30020681256D+03

 Unable to determine electronic state:  an orbital has unidentified symmetry.
 Alpha  occ. eigenvalues --  -20.43041 -20.43040 -20.41093 -20.41093  -1.43987
 Alpha  occ. eigenvalues --   -1.43787  -0.87596  -0.85364  -0.54478  -0.53980
 Alpha  occ. eigenvalues --   -0.52435  -0.51914  -0.50290  -0.46171  -0.21692
 Alpha  occ. eigenvalues --   -0.20361  -0.18905  -0.17627
 Alpha virt. eigenvalues --    0.66848   0.71391   0.89087   0.90284   0.93641
 Alpha virt. eigenvalues --    0.93895   0.95222   0.99255   1.00536   1.04019
 Alpha virt. eigenvalues --    1.11274   1.11509   1.13104   1.13917   1.15266

 Mulliken charges and spin densities:
               1          2
     1  O   -0.321488   0.682320
     2  O   -0.178512   0.817680
     3  O   -0.178512   0.817680
     4  O   -0.321488   0.682320
 Sum of Mulliken charges =  -1.00000   3.00000

 Dipole moment (field-independent basis, Debye):
    X=             -0.0000    Y=             -0.0000    Z=             -0.0000  Tot=              0.0000
 Quadrupole moment (field-independent basis, Debye-Ang):
   XX=            -21.3260   YY=            -22.5149   ZZ=            -44.1412
   XY=              0.0000   XZ=              0.0000   YZ=              0.0000

 853\PMP2-0=-300.1952041\MP4SDQ=-300.1723552\CCSD=-300.1689599\CCSD(T)=
 Normal termination of Gaussian 16 at Sat Feb 17 23:06:29 2024.
