 Gaussian 16, Revision A.03,
 Gaussian 16:  ES64L-G16RevA.03 25-Dec-2016

 -----------------------------------------------
 #p ROCCSD(T,MaxCyc=200)/cc-pVTZ SCF(MaxCyc=200)
 -----------------------------------------------

 --------
 O2_O2_37
 --------
 Symbolic Z-matrix:
 Charge = -1 Multiplicity = 4

                         Standard orientation:
 ---------------------------------------------------------------------
 Center     Atomic      Atomic             Coordinates (Angstroms)
 Number     Number       Type             X           Y           Z
 ---------------------------------------------------------------------
      1          8           0        0.615183   -1.645183    0.000000
      2          8           0       -0.205061   -0.824939    0.000000
      3          8           0       -0.205061    0.655061   -0.000000
      4          8           0       -0.205061    1.815061   -0.000000
 ---------------------------------------------------------------------

 SCF Done:  E(ROHF) =  -299.085993832     A.U. after   21 cycles
 E2 =    -0.9384038248D+00 EUMP2 =    -0.30002439765715D+03
 CCSD(T)
 CCSD(T)= -0.30005882562D+03

 The electronic state is 4-A".
 Alpha  occ. eigenvalues --  -20.49509 -20.38710 -20.32588 -20.32274  -1.48983
 Alpha  occ. eigenvalues --   -1.36591  -1.00880  -0.76681  -0.59073  -0.58590
 Alpha  occ. eigenvalues --   -0.54128  -0.46457  -0.43941  -0.31824  -0.23321
 Alpha  occ. eigenvalues --   -0.17738  -0.13095  -0.09048
 Alpha virt. eigenvalues --    0.69016   0.75127   0.91370   0.92001   0.92696
 Alpha virt. eigenvalues --    0.98351   1.00256   1.01798   1.02820   1.06647
 Alpha virt. eigenvalues --    1.11897   1.14156   1.20164   1.24102   1.28171

 Mulliken charges and spin densities:
               1          2
     1  O   -0.411584   0.559904
     2  O    0.157505   1.195816
     3  O   -0.333733   0.590557
     4  O   -0.412188   0.653723
 Sum of Mulliken charges =  -1.00000   3.00000

 Dipole moment (field-independent basis, Debye):
    X=             -0.4192    Y=             -1.6984    Z=              0.0000  Tot=              1.7494
 Quadrupole moment (field-independent basis, Debye-Ang):
   XX=            -22.9753   YY=            -36.8696   ZZ=            -22.1619
   XY=              3.3644   XZ=              0.0000   YZ=              0.0000

 6382\CCSD=-300.0195333\CCSD(T)=-300.0588256\RMSD=4.145e-09\PG=CS [SG(O
 Normal termination of Gaussian 16 at Sat Feb 17 21:14:36 2024.
