 Gaussian 16, Revision A.03,
 Gaussian 16:  ES64L-G16RevA.03 25-Dec-2016

 -----------------------------------------------
 #p ROCCSD(T,MaxCyc=200)/cc-pVTZ SCF(MaxCyc=200)
 -----------------------------------------------

 ---------
 O2_O2_138
 ---------
 Symbolic Z-matrix:
 Charge = -1 Multiplicity = 4

                         Standard orientation:
 ---------------------------------------------------------------------
 Center     Atomic      Atomic             Coordinates (Angstroms)
 Number     Number       Type             X           Y           Z
 ---------------------------------------------------------------------
      1          8           0        0.000000    0.000000    2.580000
      2          8           0        0.000000    0.000000    1.420000
      3          8           0        0.000000    0.000000   -1.420000
      4          8           0        0.000000    0.000000   -2.580000
 ---------------------------------------------------------------------

 SCF Done:  E(ROHF) =  -299.229052768     A.U. after   13 cycles
 E2 =    -0.9645590282D+00 EUMP2 =    -0.30019361179586D+03
 CCSD(T)
 CCSD(T)= -0.30020391356D+03

 Unable to determine electronic state:  partially filled degenerate orbitals.
 Alpha  occ. eigenvalues --  -20.43573 -20.43572 -20.42031 -20.42031  -1.44577
 Alpha  occ. eigenvalues --   -1.44517  -0.87563  -0.86718  -0.55005  -0.54815
 Alpha  occ. eigenvalues --   -0.52958  -0.52756  -0.49948  -0.48117  -0.22038
 Alpha  occ. eigenvalues --   -0.21440  -0.19269  -0.18759
 Alpha virt. eigenvalues --    0.62949   0.71094   0.89494   0.89643   0.90865
 Alpha virt. eigenvalues --    0.92859   0.94148   0.99271   1.00481   1.02534
 Alpha virt. eigenvalues --    1.07094   1.09370   1.10721   1.11516   1.12594

 Mulliken charges and spin densities:
               1          2
     1  O   -0.302745   0.693511
     2  O   -0.197255   0.806489
     3  O   -0.197255   0.806489
     4  O   -0.302745   0.693511
 Sum of Mulliken charges =  -1.00000   3.00000

 Dipole moment (field-independent basis, Debye):
    X=             -0.0000    Y=              0.0000    Z=             -0.0000  Tot=              0.0000
 Quadrupole moment (field-independent basis, Debye-Ang):
   XX=            -22.4788   YY=            -21.3178   ZZ=            -47.5149
   XY=              0.0000   XZ=              0.0000   YZ=              0.0000

 28\PMP2-0=-300.1936118\MP4SDQ=-300.1693429\CCSD=-300.1661476\CCSD(T)=-
 Normal termination of Gaussian 16 at Sat Feb 17 23:47:43 2024.
