 Gaussian 16, Revision A.03,
 Gaussian 16:  ES64L-G16RevA.03 25-Dec-2016

 -----------------------------------------------
 #p ROCCSD(T,MaxCyc=200)/cc-pVTZ SCF(MaxCyc=200)
 -----------------------------------------------

 --------
 O2_O2_78
 --------
 Symbolic Z-matrix:
 Charge = -1 Multiplicity = 4

                         Standard orientation:
 ---------------------------------------------------------------------
 Center     Atomic      Atomic             Coordinates (Angstroms)
 Number     Number       Type             X           Y           Z
 ---------------------------------------------------------------------
      1          8           0        0.000000    0.000000    2.180000
      2          8           0        0.000000    0.000000    1.020000
      3          8           0        0.000000    0.000000   -1.020000
      4          8           0        0.000000    0.000000   -2.180000
 ---------------------------------------------------------------------

 SCF Done:  E(ROHF) =  -299.221427484     A.U. after   13 cycles
 E2 =    -0.9639259105D+00 EUMP2 =    -0.30018535339422D+03
 CCSD(T)
 CCSD(T)= -0.30019877300D+03

 Unable to determine electronic state:  an orbital has unidentified symmetry.
 Alpha  occ. eigenvalues --  -20.42027 -20.42024 -20.39773 -20.39773  -1.43358
 Alpha  occ. eigenvalues --   -1.42693  -0.88842  -0.82959  -0.53999  -0.52682
 Alpha  occ. eigenvalues --   -0.51998  -0.51541  -0.50630  -0.42314  -0.21571
 Alpha  occ. eigenvalues --   -0.18772  -0.18601  -0.15840
 Alpha virt. eigenvalues --    0.69382   0.71547   0.89732   0.90914   0.95009
 Alpha virt. eigenvalues --    0.96422   0.98579   1.00583   1.01981   1.05826
 Alpha virt. eigenvalues --    1.11702   1.13141   1.18544   1.18801   1.19818

 Mulliken charges and spin densities:
               1          2
     1  O   -0.344626   0.673475
     2  O   -0.155374   0.826525
     3  O   -0.155374   0.826525
     4  O   -0.344626   0.673475
 Sum of Mulliken charges =  -1.00000   3.00000

 Dipole moment (field-independent basis, Debye):
    X=             -0.0000    Y=              0.0000    Z=              0.0000  Tot=              0.0000
 Quadrupole moment (field-independent basis, Debye-Ang):
   XX=            -22.5352   YY=            -21.3229   ZZ=            -41.3392
   XY=              0.0000   XZ=              0.0000   YZ=              0.0000

 75\PMP2-0=-300.1853534\MP4SDQ=-300.1644619\CCSD=-300.1607636\CCSD(T)=-
 Normal termination of Gaussian 16 at Sat Feb 17 22:21:21 2024.
