 Gaussian 16, Revision A.03,
 Gaussian 16:  ES64L-G16RevA.03 25-Dec-2016

 -----------------------------------------------
 #p ROCCSD(T,MaxCyc=200)/cc-pVTZ SCF(MaxCyc=200)
 -----------------------------------------------

 -------
 O2_O2_8
 -------
 Symbolic Z-matrix:
 Charge = -1 Multiplicity = 4

                         Standard orientation:
 ---------------------------------------------------------------------
 Center     Atomic      Atomic             Coordinates (Angstroms)
 Number     Number       Type             X           Y           Z
 ---------------------------------------------------------------------
      1          8           0       -0.870000   -0.830000    0.000000
      2          8           0        0.290000   -0.830000    0.000000
      3          8           0        0.290000    0.250000    0.000000
      4          8           0        0.290000    1.410000    0.000000
 ---------------------------------------------------------------------

 SCF Done:  E(ROHF) =  -298.635950402     A.U. after   19 cycles
 E2 =    -0.9607405497D+00 EUMP2 =    -0.29959669095201D+03
 CCSD(T)
 CCSD(T)= -0.29961570765D+03

 The electronic state is 4-A".
 Alpha  occ. eigenvalues --  -20.53291 -20.44204 -20.32624 -20.23202  -1.73789
 Alpha  occ. eigenvalues --   -1.40523  -1.09604  -0.80178  -0.73276  -0.65749
 Alpha  occ. eigenvalues --   -0.56855  -0.42667  -0.41669  -0.23177  -0.20201
 Alpha  occ. eigenvalues --   -0.12899  -0.08920   0.06285
 Alpha virt. eigenvalues --    0.66542   0.70423   0.83738   0.89781   0.93099
 Alpha virt. eigenvalues --    0.96875   1.00236   1.00978   1.09151   1.09394
 Alpha virt. eigenvalues --    1.12372   1.14408   1.21209   1.25975   1.38848

 Mulliken charges and spin densities:
               1          2
     1  O   -0.769461   0.163774
     2  O    0.068232   0.375453
     3  O    0.125646   1.453254
     4  O   -0.424417   1.007519
 Sum of Mulliken charges =  -1.00000   3.00000

 Dipole moment (field-independent basis, Debye):
    X=              2.3832    Y=             -0.5949    Z=              0.0000  Tot=              2.4563
 Quadrupole moment (field-independent basis, Debye-Ang):
   XX=            -25.4756   YY=            -32.4076   ZZ=            -21.6744
   XY=             -3.7706   XZ=              0.0000   YZ=              0.0000

 CCSD(T)=-299.6157077\RMSD=1.759e-09\PG=CS [SG(O4)]\\@
 Normal termination of Gaussian 16 at Sat Feb 17 20:25:50 2024.
