 Gaussian 16, Revision A.03,
 Gaussian 16:  ES64L-G16RevA.03 25-Dec-2016

 -----------------------------------------------
 #p ROCCSD(T,MaxCyc=200)/cc-pVTZ SCF(MaxCyc=200)
 -----------------------------------------------

 -------
 O2_O2_5
 -------
 Symbolic Z-matrix:
 Charge = -1 Multiplicity = 4

                         Standard orientation:
 ---------------------------------------------------------------------
 Center     Atomic      Atomic             Coordinates (Angstroms)
 Number     Number       Type             X           Y           Z
 ---------------------------------------------------------------------
      1          8           0       -0.870000   -0.810000    0.000000
      2          8           0        0.290000   -0.810000    0.000000
      3          8           0        0.290000    0.230000    0.000000
      4          8           0        0.290000    1.390000    0.000000
 ---------------------------------------------------------------------

 SCF Done:  E(ROHF) =  -298.570667275     A.U. after   18 cycles
 E2 =    -0.9532591831D+00 EUMP2 =    -0.29952392645815D+03
 CCSD(T)
 CCSD(T)= -0.29954459744D+03

 The electronic state is 4-A".
 Alpha  occ. eigenvalues --  -20.52618 -20.45334 -20.31166 -20.23543  -1.78115
 Alpha  occ. eigenvalues --   -1.40145  -1.11425  -0.80809  -0.75724  -0.65768
 Alpha  occ. eigenvalues --   -0.56915  -0.41844  -0.41527  -0.22762  -0.19849
 Alpha  occ. eigenvalues --   -0.12196  -0.08620   0.07788
 Alpha virt. eigenvalues --    0.66094   0.70278   0.83984   0.89151   0.92148
 Alpha virt. eigenvalues --    0.97080   1.00474   1.01158   1.08770   1.09149
 Alpha virt. eigenvalues --    1.12762   1.14352   1.21685   1.26893   1.44195

 Mulliken charges and spin densities:
               1          2
     1  O   -0.773049   0.166663
     2  O    0.096555   0.341633
     3  O    0.104416   1.437970
     4  O   -0.427923   1.053733
 Sum of Mulliken charges =  -1.00000   3.00000

 Dipole moment (field-independent basis, Debye):
    X=              2.3632    Y=             -1.0138    Z=              0.0000  Tot=              2.5715
 Quadrupole moment (field-independent basis, Debye-Ang):
   XX=            -25.4042   YY=            -32.4936   ZZ=            -21.6091
   XY=             -3.8637   XZ=              0.0000   YZ=              0.0000

 \CCSD(T)=-299.5445974\RMSD=8.780e-09\PG=CS [SG(O4)]\\@
 Normal termination of Gaussian 16 at Sat Feb 17 20:21:22 2024.
