 Gaussian 16, Revision A.03,
 Gaussian 16:  ES64L-G16RevA.03 25-Dec-2016

 -----------------------------------------------
 #p ROCCSD(T,MaxCyc=200)/cc-pVTZ SCF(MaxCyc=200)
 -----------------------------------------------

 --------
 O2_O2_64
 --------
 Symbolic Z-matrix:
 Charge = -1 Multiplicity = 4

                         Standard orientation:
 ---------------------------------------------------------------------
 Center     Atomic      Atomic             Coordinates (Angstroms)
 Number     Number       Type             X           Y           Z
 ---------------------------------------------------------------------
      1          8           0        0.615183   -1.825183   -0.000000
      2          8           0       -0.205061   -1.004939    0.000000
      3          8           0       -0.205061    0.835061    0.000000
      4          8           0       -0.205061    1.995061    0.000000
 ---------------------------------------------------------------------

 SCF Done:  E(ROHF) =  -299.212379050     A.U. after   33 cycles
 E2 =    -0.9300545542D+00 EUMP2 =    -0.30014243360412D+03
 CCSD(T)
 CCSD(T)= -0.30017552811D+03

 The electronic state is 4-A".
 Alpha  occ. eigenvalues --  -20.54514 -20.48190 -20.28194 -20.27566  -1.53154
 Alpha  occ. eigenvalues --   -1.31460  -0.96719  -0.76050  -0.62556  -0.62514
 Alpha  occ. eigenvalues --   -0.56502  -0.42619  -0.39332  -0.36546  -0.28913
 Alpha  occ. eigenvalues --   -0.26467  -0.09393  -0.05224
 Alpha virt. eigenvalues --    0.63929   0.77233   0.87567   0.88093   0.93043
 Alpha virt. eigenvalues --    0.97302   0.98405   0.98620   1.03237   1.05461
 Alpha virt. eigenvalues --    1.13076   1.17587   1.20618   1.21715   1.24551

 Mulliken charges and spin densities:
               1          2
     1  O   -0.244349   0.732816
     2  O    0.148333   1.209456
     3  O   -0.445090   0.489717
     4  O   -0.458895   0.568011
 Sum of Mulliken charges =  -1.00000   3.00000

 Dipole moment (field-independent basis, Debye):
    X=              0.1184    Y=             -4.5259    Z=              0.0000  Tot=              4.5275
 Quadrupole moment (field-independent basis, Debye-Ang):
   XX=            -22.4756   YY=            -37.9282   ZZ=            -22.3875
   XY=              3.0368   XZ=             -0.0000   YZ=              0.0000

 \CCSD=-300.1381662\CCSD(T)=-300.1755281\RMSD=4.451e-09\PG=CS [SG(O4)]\
 Normal termination of Gaussian 16 at Sat Feb 17 21:58:19 2024.
