 Gaussian 16, Revision A.03,
 Gaussian 16:  ES64L-G16RevA.03 25-Dec-2016

 -----------------------------------------------
 #p ROCCSD(T,MaxCyc=200)/cc-pVTZ SCF(MaxCyc=200)
 -----------------------------------------------

 --------
 O2_O2_57
 --------
 Symbolic Z-matrix:
 Charge = -1 Multiplicity = 4

                         Standard orientation:
 ---------------------------------------------------------------------
 Center     Atomic      Atomic             Coordinates (Angstroms)
 Number     Number       Type             X           Y           Z
 ---------------------------------------------------------------------
      1          8           0        0.000000    0.000000    2.040000
      2          8           0        0.000000    0.000000    0.880000
      3          8           0        0.000000    0.000000   -0.880000
      4          8           0        0.000000    0.000000   -2.040000
 ---------------------------------------------------------------------

 SCF Done:  E(ROHF) =  -299.182201799     A.U. after   13 cycles
 E2 =    -0.9646605690D+00 EUMP2 =    -0.30014686236837D+03
 CCSD(T)
 CCSD(T)= -0.30016200059D+03

 Unable to determine electronic state:  an orbital has unidentified symmetry.
 Alpha  occ. eigenvalues --  -20.40586 -20.40582 -20.38461 -20.38461  -1.43044
 Alpha  occ. eigenvalues --   -1.41480  -0.91733  -0.80161  -0.53893  -0.53130
 Alpha  occ. eigenvalues --   -0.51992  -0.51249  -0.49217  -0.36902  -0.21865
 Alpha  occ. eigenvalues --   -0.19031  -0.16557  -0.13854
 Alpha virt. eigenvalues --    0.70601   0.71680   0.90998   0.92156   0.95861
 Alpha virt. eigenvalues --    0.97409   0.99700   1.02655   1.04145   1.05794
 Alpha virt. eigenvalues --    1.12844   1.13786   1.21472   1.22610   1.25408

 Mulliken charges and spin densities:
               1          2
     1  O   -0.355667   0.678156
     2  O   -0.144333   0.821844
     3  O   -0.144333   0.821844
     4  O   -0.355667   0.678156
 Sum of Mulliken charges =  -1.00000   3.00000

 Dipole moment (field-independent basis, Debye):
    X=             -0.0000    Y=             -0.0000    Z=              0.0000  Tot=              0.0000
 Quadrupole moment (field-independent basis, Debye-Ang):
   XX=            -21.2851   YY=            -22.4953   ZZ=            -39.8031
   XY=              0.0000   XZ=              0.0000   YZ=              0.0000

 18\PMP2-0=-300.1468624\MP4SDQ=-300.1276241\CCSD=-300.1236501\CCSD(T)=-
 Normal termination of Gaussian 16 at Sat Feb 17 21:47:33 2024.
