 Gaussian 16, Revision A.03,
 Gaussian 16:  ES64L-G16RevA.03 25-Dec-2016

 -----------------------------------------------
 #p ROCCSD(T,MaxCyc=200)/cc-pVTZ SCF(MaxCyc=200)
 -----------------------------------------------

 ---------
 O2_O2_111
 ---------
 Symbolic Z-matrix:
 Charge = -1 Multiplicity = 4

                         Standard orientation:
 ---------------------------------------------------------------------
 Center     Atomic      Atomic             Coordinates (Angstroms)
 Number     Number       Type             X           Y           Z
 ---------------------------------------------------------------------
      1          8           0        0.000000    0.000000    2.400000
      2          8           0        0.000000    0.000000    1.240000
      3          8           0        0.000000    0.000000   -1.240000
      4          8           0        0.000000    0.000000   -2.400000
 ---------------------------------------------------------------------

 SCF Done:  E(ROHF) =  -299.230970498     A.U. after   13 cycles
 E2 =    -0.9642600550D+00 EUMP2 =    -0.30019523055332D+03
 CCSD(T)
 CCSD(T)= -0.30020668890D+03

 Unable to determine electronic state:  an orbital has unidentified symmetry.
 Alpha  occ. eigenvalues --  -20.43107 -20.43106 -20.41200 -20.41200  -1.44049
 Alpha  occ. eigenvalues --   -1.43872  -0.87561  -0.85534  -0.54531  -0.54079
 Alpha  occ. eigenvalues --   -0.52487  -0.52013  -0.50224  -0.46424  -0.21720
 Alpha  occ. eigenvalues --   -0.20492  -0.18935  -0.17762
 Alpha virt. eigenvalues --    0.66516   0.71365   0.89107   0.90307   0.93114
 Alpha virt. eigenvalues --    0.93788   0.95110   0.99204   1.00476   1.03848
 Alpha virt. eigenvalues --    1.10745   1.11514   1.13041   1.13443   1.14795

 Mulliken charges and spin densities:
               1          2
     1  O   -0.319206   0.683464
     2  O   -0.180794   0.816536
     3  O   -0.180794   0.816536
     4  O   -0.319206   0.683464
 Sum of Mulliken charges =  -1.00000   3.00000

 Dipole moment (field-independent basis, Debye):
    X=             -0.0000    Y=              0.0000    Z=              0.0000  Tot=              0.0000
 Quadrupole moment (field-independent basis, Debye-Ang):
   XX=            -21.3253   YY=            -22.5112   ZZ=            -44.4555
   XY=              0.0000   XZ=              0.0000   YZ=              0.0000

 05\PMP2-0=-300.1952306\MP4SDQ=-300.1722171\CCSD=-300.1688458\CCSD(T)=-
 Normal termination of Gaussian 16 at Sat Feb 17 23:11:03 2024.
