 Gaussian 16, Revision A.03,
 Gaussian 16:  ES64L-G16RevA.03 25-Dec-2016

 -----------------------------------------------
 #p ROCCSD(T,MaxCyc=200)/cc-pVTZ SCF(MaxCyc=200)
 -----------------------------------------------

 --------
 O2_O2_34
 --------
 Symbolic Z-matrix:
 Charge = -1 Multiplicity = 4

                         Standard orientation:
 ---------------------------------------------------------------------
 Center     Atomic      Atomic             Coordinates (Angstroms)
 Number     Number       Type             X           Y           Z
 ---------------------------------------------------------------------
      1          8           0        0.615183   -1.625183   -0.000000
      2          8           0       -0.205061   -0.804939   -0.000000
      3          8           0       -0.205061    0.635061    0.000000
      4          8           0       -0.205061    1.795061    0.000000
 ---------------------------------------------------------------------

 SCF Done:  E(ROHF) =  -299.061856765     A.U. after   20 cycles
 E2 =    -0.9394077592D+00 EUMP2 =    -0.30000126452385D+03
 CCSD(T)
 CCSD(T)= -0.30003519309D+03

 The electronic state is 4-A".
 Alpha  occ. eigenvalues --  -20.48768 -20.37332 -20.33701 -20.32905  -1.48805
 Alpha  occ. eigenvalues --   -1.37362  -1.02368  -0.76182  -0.58965  -0.58389
 Alpha  occ. eigenvalues --   -0.54159  -0.46775  -0.44592  -0.30632  -0.22713
 Alpha  occ. eigenvalues --   -0.17123  -0.12767  -0.09516
 Alpha virt. eigenvalues --    0.69626   0.74894   0.91680   0.92052   0.92627
 Alpha virt. eigenvalues --    0.98140   1.00219   1.02068   1.03090   1.07031
 Alpha virt. eigenvalues --    1.11875   1.13687   1.19945   1.24154   1.28786

 Mulliken charges and spin densities:
               1          2
     1  O   -0.437628   0.534663
     2  O    0.152521   1.178229
     3  O   -0.307788   0.620556
     4  O   -0.407105   0.666553
 Sum of Mulliken charges =  -1.00000   3.00000

 Dipole moment (field-independent basis, Debye):
    X=             -0.5022    Y=             -1.3078    Z=             -0.0000  Tot=              1.4009
 Quadrupole moment (field-independent basis, Debye-Ang):
   XX=            -23.0520   YY=            -36.8472   ZZ=            -22.1140
   XY=              3.4157   XZ=              0.0000   YZ=             -0.0000

 2679\CCSD=-299.995847\CCSD(T)=-300.0351931\RMSD=7.045e-09\PG=CS [SG(O4
 Normal termination of Gaussian 16 at Sat Feb 17 21:09:33 2024.
