 Gaussian 16, Revision A.03,
 Gaussian 16:  ES64L-G16RevA.03 25-Dec-2016

 -----------------------------------------------
 #p ROCCSD(T,MaxCyc=200)/cc-pVTZ SCF(MaxCyc=200)
 -----------------------------------------------

 --------
 O2_O2_44
 --------
 Symbolic Z-matrix:
 Charge = -1 Multiplicity = 4

                         Standard orientation:
 ---------------------------------------------------------------------
 Center     Atomic      Atomic             Coordinates (Angstroms)
 Number     Number       Type             X           Y           Z
 ---------------------------------------------------------------------
      1          8           0       -0.870000   -1.070000    0.000000
      2          8           0        0.290000   -1.070000    0.000000
      3          8           0        0.290000    0.490000    0.000000
      4          8           0        0.290000    1.650000    0.000000
 ---------------------------------------------------------------------

 SCF Done:  E(ROHF) =  -299.101078286     A.U. after   24 cycles
 E2 =    -0.9218889476D+00 EUMP2 =    -0.30002296723347D+03
 CCSD(T)
 CCSD(T)= -0.30006465482D+03

 The electronic state is 4-A".
 Alpha  occ. eigenvalues --  -20.50497 -20.41370 -20.28152 -20.27911  -1.50850
 Alpha  occ. eigenvalues --   -1.32240  -0.94990  -0.80722  -0.59343  -0.58010
 Alpha  occ. eigenvalues --   -0.53075  -0.43953  -0.39890  -0.32133  -0.24903
 Alpha  occ. eigenvalues --   -0.20883  -0.09161  -0.06189
 Alpha virt. eigenvalues --    0.62933   0.75270   0.85514   0.91311   0.93006
 Alpha virt. eigenvalues --    0.98739   1.00687   1.01838   1.04267   1.09503
 Alpha virt. eigenvalues --    1.14188   1.17174   1.18479   1.26305   1.27735

 Mulliken charges and spin densities:
               1          2
     1  O   -0.251300   0.689564
     2  O    0.096486   1.159916
     3  O   -0.355872   0.593381
     4  O   -0.489314   0.557140
 Sum of Mulliken charges =  -1.00000   3.00000

 Dipole moment (field-independent basis, Debye):
    X=              0.0382    Y=             -3.3919    Z=              0.0000  Tot=              3.3922
 Quadrupole moment (field-independent basis, Debye-Ang):
   XX=            -23.5408   YY=            -32.7053   ZZ=            -22.1395
   XY=             -2.8692   XZ=              0.0000   YZ=              0.0000

 16\CCSD(T)=-300.0646548\RMSD=3.499e-09\PG=CS [SG(O4)]\\@
 Normal termination of Gaussian 16 at Sat Feb 17 21:26:07 2024.
