 Gaussian 16, Revision A.03,
 Gaussian 16:  ES64L-G16RevA.03 25-Dec-2016

 -----------------------------------------------
 #p ROCCSD(T,MaxCyc=200)/cc-pVTZ SCF(MaxCyc=200)
 -----------------------------------------------

 ---------
 O2_O2_222
 ---------
 Symbolic Z-matrix:
 Charge = -1 Multiplicity = 4

                         Standard orientation:
 ---------------------------------------------------------------------
 Center     Atomic      Atomic             Coordinates (Angstroms)
 Number     Number       Type             X           Y           Z
 ---------------------------------------------------------------------
      1          8           0        0.000000    0.000000    3.140000
      2          8           0        0.000000    0.000000    1.980000
      3          8           0        0.000000    0.000000   -1.980000
      4          8           0        0.000000    0.000000   -3.140000
 ---------------------------------------------------------------------

 SCF Done:  E(ROHF) =  -299.223601933     A.U. after   13 cycles
 E2 =    -0.9651145576D+00 EUMP2 =    -0.30018871649048D+03
 CCSD(T)
 CCSD(T)= -0.30019690849D+03

 Unable to determine electronic state:  partially filled degenerate orbitals.
 Alpha  occ. eigenvalues --  -20.44532 -20.44532 -20.43717 -20.43717  -1.45856
 Alpha  occ. eigenvalues --   -1.45854  -0.88578  -0.88529  -0.56248  -0.56236
 Alpha  occ. eigenvalues --   -0.54211  -0.54201  -0.50599  -0.50425  -0.23142
 Alpha  occ. eigenvalues --   -0.23091  -0.20554  -0.20367
 Alpha virt. eigenvalues --    0.59090   0.67658   0.90243   0.90284   0.90632
 Alpha virt. eigenvalues --    0.91539   0.91883   0.97391   1.01131   1.02426
 Alpha virt. eigenvalues --    1.02433   1.02950   1.03604   1.08448   1.11431

 Mulliken charges and spin densities:
               1          2
     1  O   -0.282577   0.714572
     2  O   -0.217423   0.785428
     3  O   -0.217423   0.785428
     4  O   -0.282577   0.714572
 Sum of Mulliken charges =  -1.00000   3.00000

 Dipole moment (field-independent basis, Debye):
    X=             -0.0000    Y=             -0.0000    Z=              0.0000  Tot=              0.0000
 Quadrupole moment (field-independent basis, Debye-Ang):
   XX=            -22.4132   YY=            -21.3030   ZZ=            -59.2948
   XY=              0.0000   XZ=              0.0000   YZ=              0.0000

 Normal termination of Gaussian 16 at Sun Feb 18 01:02:29 2024.
