 Gaussian 16, Revision A.03,
 Gaussian 16:  ES64L-G16RevA.03 25-Dec-2016

 -----------------------------------------------
 #p ROCCSD(T,MaxCyc=200)/cc-pVTZ SCF(MaxCyc=200)
 -----------------------------------------------

 --------
 O2_O2_40
 --------
 Symbolic Z-matrix:
 Charge = -1 Multiplicity = 4

                         Standard orientation:
 ---------------------------------------------------------------------
 Center     Atomic      Atomic             Coordinates (Angstroms)
 Number     Number       Type             X           Y           Z
 ---------------------------------------------------------------------
      1          8           0        0.615183   -1.665183    0.000000
      2          8           0       -0.205061   -0.844939    0.000000
      3          8           0       -0.205061    0.675061   -0.000000
      4          8           0       -0.205061    1.835061   -0.000000
 ---------------------------------------------------------------------

 SCF Done:  E(ROHF) =  -299.107692905     A.U. after   21 cycles
 E2 =    -0.9374950632D+00 EUMP2 =    -0.30004518796824D+03
 CCSD(T)
 CCSD(T)= -0.30007991176D+03

 The electronic state is 4-A".
 Alpha  occ. eigenvalues --  -20.50211 -20.40039 -20.31690 -20.31593  -1.49324
 Alpha  occ. eigenvalues --   -1.35812  -0.99610  -0.77062  -0.59291  -0.58915
 Alpha  occ. eigenvalues --   -0.54223  -0.46015  -0.43278  -0.32870  -0.23976
 Alpha  occ. eigenvalues --   -0.18778  -0.12855  -0.08540
 Alpha virt. eigenvalues --    0.68378   0.75400   0.90998   0.91708   0.92874
 Alpha virt. eigenvalues --    0.98472   1.00269   1.01236   1.02851   1.06307
 Alpha virt. eigenvalues --    1.12062   1.14597   1.20346   1.23990   1.27617

 Mulliken charges and spin densities:
               1          2
     1  O   -0.387068   0.584042
     2  O    0.160729   1.208112
     3  O   -0.356157   0.566158
     4  O   -0.417504   0.641689
 Sum of Mulliken charges =  -1.00000   3.00000

 Dipole moment (field-independent basis, Debye):
    X=             -0.3419    Y=             -2.0805    Z=              0.0000  Tot=              2.1084
 Quadrupole moment (field-independent basis, Debye-Ang):
   XX=            -22.9012   YY=            -36.9154   ZZ=            -22.2052
   XY=              3.3171   XZ=             -0.0000   YZ=              0.0000

 74\CCSD=-300.0407352\CCSD(T)=-300.0799118\RMSD=8.959e-09\PG=CS [SG(O4)
 Normal termination of Gaussian 16 at Sat Feb 17 21:19:22 2024.
