 Gaussian 16, Revision A.03,
 Gaussian 16:  ES64L-G16RevA.03 25-Dec-2016

 -----------------------------------------------
 #p ROCCSD(T,MaxCyc=200)/cc-pVTZ SCF(MaxCyc=200)
 -----------------------------------------------

 ---------
 O2_O2_163
 ---------
 Symbolic Z-matrix:
 Charge = -1 Multiplicity = 4

                         Standard orientation:
 ---------------------------------------------------------------------
 Center     Atomic      Atomic             Coordinates (Angstroms)
 Number     Number       Type             X           Y           Z
 ---------------------------------------------------------------------
      1          8           0        0.615183   -2.485183   -0.000000
      2          8           0       -0.205061   -1.664939    0.000000
      3          8           0       -0.205061    1.495061    0.000000
      4          8           0       -0.205061    2.655061    0.000000
 ---------------------------------------------------------------------

 SCF Done:  E(ROHF) =  -299.226996278     A.U. after   19 cycles
 E2 =    -0.9646695910D+00 EUMP2 =    -0.30019166586878D+03
 CCSD(T)
 CCSD(T)= -0.30020132435D+03

 The electronic state is 4-A".
 Alpha  occ. eigenvalues --  -20.43763 -20.43746 -20.42547 -20.42478  -1.44864
 Alpha  occ. eigenvalues --   -1.44828  -0.87692  -0.87328  -0.55260  -0.55181
 Alpha  occ. eigenvalues --   -0.53234  -0.53133  -0.49847  -0.49056  -0.22147
 Alpha  occ. eigenvalues --   -0.21988  -0.19488  -0.19305
 Alpha virt. eigenvalues --    0.61080   0.68588   0.87596   0.90553   0.91446
 Alpha virt. eigenvalues --    0.93136   0.93552   0.98074   1.01362   1.02611
 Alpha virt. eigenvalues --    1.04242   1.05955   1.07560   1.10960   1.12379

 Mulliken charges and spin densities:
               1          2
     1  O   -0.289392   0.705533
     2  O   -0.209698   0.794688
     3  O   -0.206645   0.799629
     4  O   -0.294264   0.700150
 Sum of Mulliken charges =  -1.00000   3.00000

 Dipole moment (field-independent basis, Debye):
    X=             -0.1443    Y=             -0.1040    Z=              0.0000  Tot=              0.1779
 Quadrupole moment (field-independent basis, Debye-Ang):
   XX=            -22.6182   YY=            -47.3454   ZZ=            -22.4530
   XY=              3.5012   XZ=              0.0000   YZ=             -0.0000

 66507\CCSD=-300.1635751\CCSD(T)=-300.2013244\RMSD=4.311e-09\PG=CS [SG(
 Normal termination of Gaussian 16 at Sun Feb 18 00:13:51 2024.
