 Gaussian 16, Revision A.03,
 Gaussian 16:  ES64L-G16RevA.03 25-Dec-2016

 -----------------------------------------------
 #p ROCCSD(T,MaxCyc=200)/cc-pVTZ SCF(MaxCyc=200)
 -----------------------------------------------

 --------
 O2_O2_42
 --------
 Symbolic Z-matrix:
 Charge = -1 Multiplicity = 4

                         Standard orientation:
 ---------------------------------------------------------------------
 Center     Atomic      Atomic             Coordinates (Angstroms)
 Number     Number       Type             X           Y           Z
 ---------------------------------------------------------------------
      1          8           0        0.000000    0.000000    1.940000
      2          8           0        0.000000    0.000000    0.780000
      3          8           0        0.000000    0.000000   -0.780000
      4          8           0        0.000000    0.000000   -1.940000
 ---------------------------------------------------------------------

 SCF Done:  E(ROHF) =  -299.105357376     A.U. after   13 cycles
 E2 =    -0.9671602042D+00 EUMP2 =    -0.30007251758030D+03
 CCSD(T)
 CCSD(T)= -0.30008926700D+03

 Unable to determine electronic state:  an orbital has unidentified symmetry.
 Alpha  occ. eigenvalues --  -20.38980 -20.38975 -20.37207 -20.37207  -1.43204
 Alpha  occ. eigenvalues --   -1.40238  -0.95999  -0.77427  -0.54487  -0.54232
 Alpha  occ. eigenvalues --   -0.52502  -0.49837  -0.47785  -0.30057  -0.22519
 Alpha  occ. eigenvalues --   -0.19578  -0.14360  -0.11801
 Alpha virt. eigenvalues --    0.71042   0.72012   0.91921   0.93055   0.96490
 Alpha virt. eigenvalues --    0.98218   0.98339   1.03900   1.04807   1.06324
 Alpha virt. eigenvalues --    1.12631   1.18046   1.23372   1.24339   1.30468

 Mulliken charges and spin densities:
               1          2
     1  O   -0.357750   0.698574
     2  O   -0.142250   0.801426
     3  O   -0.142250   0.801426
     4  O   -0.357750   0.698574
 Sum of Mulliken charges =  -1.00000   3.00000

 Dipole moment (field-independent basis, Debye):
    X=             -0.0000    Y=             -0.0000    Z=             -0.0000  Tot=              0.0000
 Quadrupole moment (field-independent basis, Debye-Ang):
   XX=            -21.2110   YY=            -22.4018   ZZ=            -38.9851
   XY=              0.0000   XZ=              0.0000   YZ=              0.0000

 574\PMP2-0=-300.0725176\MP4SDQ=-300.054387\CCSD=-300.0502379\CCSD(T)=-
 Normal termination of Gaussian 16 at Sat Feb 17 21:22:27 2024.
