 Gaussian 16, Revision A.03,
 Gaussian 16:  ES64L-G16RevA.03 25-Dec-2016

 -----------------------------------------------
 #p ROCCSD(T,MaxCyc=200)/cc-pVTZ SCF(MaxCyc=200)
 -----------------------------------------------

 ---------
 O2_O2_126
 ---------
 Symbolic Z-matrix:
 Charge = -1 Multiplicity = 4

                         Standard orientation:
 ---------------------------------------------------------------------
 Center     Atomic      Atomic             Coordinates (Angstroms)
 Number     Number       Type             X           Y           Z
 ---------------------------------------------------------------------
      1          8           0        0.000000    0.000000    2.500000
      2          8           0        0.000000    0.000000    1.340000
      3          8           0        0.000000    0.000000   -1.340000
      4          8           0        0.000000    0.000000   -2.500000
 ---------------------------------------------------------------------

 SCF Done:  E(ROHF) =  -299.230113902     A.U. after   13 cycles
 E2 =    -0.9644449094D+00 EUMP2 =    -0.30019455881179D+03
 CCSD(T)
 CCSD(T)= -0.30020533444D+03

 Unable to determine electronic state:  partially filled degenerate orbitals.
 Alpha  occ. eigenvalues --  -20.43387 -20.43386 -20.41689 -20.41689  -1.44349
 Alpha  occ. eigenvalues --   -1.44252  -0.87507  -0.86259  -0.54796  -0.54517
 Alpha  occ. eigenvalues --   -0.52749  -0.52454  -0.50009  -0.47474  -0.21887
 Alpha  occ. eigenvalues --   -0.21062  -0.19110  -0.18359
 Alpha virt. eigenvalues --    0.64624   0.71220   0.89356   0.90567   0.90811
 Alpha virt. eigenvalues --    0.93266   0.94566   0.99135   1.00368   1.03076
 Alpha virt. eigenvalues --    1.08483   1.11116   1.11527   1.12471   1.12786

 Mulliken charges and spin densities:
               1          2
     1  O   -0.309162   0.689179
     2  O   -0.190838   0.810821
     3  O   -0.190838   0.810821
     4  O   -0.309162   0.689179
 Sum of Mulliken charges =  -1.00000   3.00000

 Dipole moment (field-independent basis, Debye):
    X=             -0.0000    Y=             -0.0000    Z=              0.0000  Tot=              0.0000
 Quadrupole moment (field-independent basis, Debye-Ang):
   XX=            -22.4927   YY=            -21.3210   ZZ=            -46.1066
   XY=              0.0000   XZ=              0.0000   YZ=              0.0000

 1139\PMP2-0=-300.1945588\MP4SDQ=-300.1708009\CCSD=-300.167535\CCSD(T)=
 Normal termination of Gaussian 16 at Sat Feb 17 23:32:40 2024.
