 Gaussian 16, Revision A.03,
 Gaussian 16:  ES64L-G16RevA.03 25-Dec-2016

 -----------------------------------------------
 #p ROCCSD(T,MaxCyc=200)/cc-pVTZ SCF(MaxCyc=200)
 -----------------------------------------------

 --------
 O2_O2_93
 --------
 Symbolic Z-matrix:
 Charge = -1 Multiplicity = 4

                         Standard orientation:
 ---------------------------------------------------------------------
 Center     Atomic      Atomic             Coordinates (Angstroms)
 Number     Number       Type             X           Y           Z
 ---------------------------------------------------------------------
      1          8           0        0.000000    0.000000    2.280000
      2          8           0        0.000000    0.000000    1.120000
      3          8           0        0.000000    0.000000   -1.120000
      4          8           0        0.000000    0.000000   -2.280000
 ---------------------------------------------------------------------

 SCF Done:  E(ROHF) =  -299.229289813     A.U. after   13 cycles
 E2 =    -0.9640184002D+00 EUMP2 =    -0.30019330821333D+03
 CCSD(T)
 CCSD(T)= -0.30020574533D+03

 Unable to determine electronic state:  an orbital has unidentified symmetry.
 Alpha  occ. eigenvalues --  -20.42634 -20.42632 -20.40496 -20.40496  -1.43671
 Alpha  occ. eigenvalues --   -1.43306  -0.87967  -0.84343  -0.54221  -0.53413
 Alpha  occ. eigenvalues --   -0.52190  -0.51350  -0.50770  -0.44603  -0.21585
 Alpha  occ. eigenvalues --   -0.19602  -0.18792  -0.16846
 Alpha virt. eigenvalues --    0.68259   0.71494   0.89203   0.90392   0.94439
 Alpha virt. eigenvalues --    0.95800   0.96345   0.99717   1.01051   1.04943
 Alpha virt. eigenvalues --    1.11503   1.13042   1.14787   1.16274   1.17599

 Mulliken charges and spin densities:
               1          2
     1  O   -0.333565   0.676985
     2  O   -0.166435   0.823015
     3  O   -0.166435   0.823015
     4  O   -0.333565   0.676985
 Sum of Mulliken charges =  -1.00000   3.00000

 Dipole moment (field-independent basis, Debye):
    X=             -0.0000    Y=             -0.0000    Z=              0.0000  Tot=              0.0000
 Quadrupole moment (field-independent basis, Debye-Ang):
   XX=            -21.3280   YY=            -22.5305   ZZ=            -42.6584
   XY=              0.0000   XZ=              0.0000   YZ=              0.0000

 98\PMP2-0=-300.1933082\MP4SDQ=-300.1713656\CCSD=-300.1678343\CCSD(T)=-
 Normal termination of Gaussian 16 at Sat Feb 17 22:44:02 2024.
