 Gaussian 16, Revision A.03,
 Gaussian 16:  ES64L-G16RevA.03 25-Dec-2016

 -----------------------------------------------
 #p ROCCSD(T,MaxCyc=200)/cc-pVTZ SCF(MaxCyc=200)
 -----------------------------------------------

 --------
 O2_O2_90
 --------
 Symbolic Z-matrix:
 Charge = -1 Multiplicity = 4

                         Standard orientation:
 ---------------------------------------------------------------------
 Center     Atomic      Atomic             Coordinates (Angstroms)
 Number     Number       Type             X           Y           Z
 ---------------------------------------------------------------------
      1          8           0        0.000000    0.000000    2.260000
      2          8           0        0.000000    0.000000    1.100000
      3          8           0        0.000000    0.000000   -1.100000
      4          8           0        0.000000    0.000000   -2.260000
 ---------------------------------------------------------------------

 SCF Done:  E(ROHF) =  -299.228393484     A.U. after   13 cycles
 E2 =    -0.9639855240D+00 EUMP2 =    -0.30019237900801D+03
 CCSD(T)
 CCSD(T)= -0.30020499919D+03

 Unable to determine electronic state:  an orbital has unidentified symmetry.
 Alpha  occ. eigenvalues --  -20.42532 -20.42530 -20.40363 -20.40363  -1.43607
 Alpha  occ. eigenvalues --   -1.43196  -0.88091  -0.84099  -0.54172  -0.53282
 Alpha  occ. eigenvalues --   -0.52146  -0.51221  -0.50899  -0.44214  -0.21573
 Alpha  occ. eigenvalues --   -0.19424  -0.18779  -0.16665
 Alpha virt. eigenvalues --    0.68501   0.71508   0.89275   0.90463   0.94550
 Alpha virt. eigenvalues --    0.95920   0.96854   0.99856   1.01201   1.05133
 Alpha virt. eigenvalues --    1.11514   1.13095   1.15515   1.16737   1.18054

 Mulliken charges and spin densities:
               1          2
     1  O   -0.335946   0.676071
     2  O   -0.164054   0.823929
     3  O   -0.164054   0.823929
     4  O   -0.335946   0.676071
 Sum of Mulliken charges =  -1.00000   3.00000

 Dipole moment (field-independent basis, Debye):
    X=             -0.0000    Y=             -0.0000    Z=              0.0000  Tot=              0.0000
 Quadrupole moment (field-independent basis, Debye-Ang):
   XX=            -21.3278   YY=            -22.5327   ZZ=            -42.3809
   XY=              0.0000   XZ=              0.0000   YZ=              0.0000

 5\PMP2-0=-300.192379\MP4SDQ=-300.1706351\CCSD=-300.1670729\CCSD(T)=-30
 Normal termination of Gaussian 16 at Sat Feb 17 22:39:33 2024.
