 Gaussian 16, Revision A.03,
 Gaussian 16:  ES64L-G16RevA.03 25-Dec-2016

 -----------------------------------------------
 #p ROCCSD(T,MaxCyc=200)/cc-pVTZ SCF(MaxCyc=200)
 -----------------------------------------------

 ---------
 O2_O2_192
 ---------
 Symbolic Z-matrix:
 Charge = -1 Multiplicity = 4

                         Standard orientation:
 ---------------------------------------------------------------------
 Center     Atomic      Atomic             Coordinates (Angstroms)
 Number     Number       Type             X           Y           Z
 ---------------------------------------------------------------------
      1          8           0        0.000000    0.000000    2.940000
      2          8           0        0.000000    0.000000    1.780000
      3          8           0        0.000000    0.000000   -1.780000
      4          8           0        0.000000    0.000000   -2.940000
 ---------------------------------------------------------------------

 SCF Done:  E(ROHF) =  -299.225434878     A.U. after   13 cycles
 E2 =    -0.9649289681D+00 EUMP2 =    -0.30019036384577D+03
 CCSD(T)
 CCSD(T)= -0.30019910816D+03

 Unable to determine electronic state:  partially filled degenerate orbitals.
 Alpha  occ. eigenvalues --  -20.44260 -20.44259 -20.43231 -20.43231  -1.45472
 Alpha  occ. eigenvalues --   -1.45465  -0.88206  -0.88063  -0.55865  -0.55833
 Alpha  occ. eigenvalues --   -0.53825  -0.53788  -0.50286  -0.49873  -0.22778
 Alpha  occ. eigenvalues --   -0.22648  -0.20038  -0.20028
 Alpha virt. eigenvalues --    0.58242   0.69559   0.88621   0.90369   0.91257
 Alpha virt. eigenvalues --    0.91618   0.92520   0.99694   1.00696   1.01869
 Alpha virt. eigenvalues --    1.03567   1.03884   1.05204   1.10984   1.11797

 Mulliken charges and spin densities:
               1          2
     1  O   -0.286712   0.708680
     2  O   -0.213288   0.791320
     3  O   -0.213288   0.791320
     4  O   -0.286712   0.708680
 Sum of Mulliken charges =  -1.00000   3.00000

 Dipole moment (field-independent basis, Debye):
    X=             -0.0000    Y=              0.0000    Z=              0.0000  Tot=              0.0000
 Quadrupole moment (field-independent basis, Debye-Ang):
   XX=            -21.3075   YY=            -22.4362   ZZ=            -54.6977
   XY=              0.0000   XZ=              0.0000   YZ=              0.0000

 Normal termination of Gaussian 16 at Sun Feb 18 00:43:12 2024.
