 Gaussian 16, Revision A.03,
 Gaussian 16:  ES64L-G16RevA.03 25-Dec-2016

 -----------------------------------------------
 #p ROCCSD(T,MaxCyc=200)/cc-pVTZ SCF(MaxCyc=200)
 -----------------------------------------------

 ---------
 O2_O2_252
 ---------
 Symbolic Z-matrix:
 Charge = -1 Multiplicity = 4

                         Standard orientation:
 ---------------------------------------------------------------------
 Center     Atomic      Atomic             Coordinates (Angstroms)
 Number     Number       Type             X           Y           Z
 ---------------------------------------------------------------------
      1          8           0        0.000000    0.000000    3.340000
      2          8           0        0.000000    0.000000    2.180000
      3          8           0        0.000000    0.000000   -2.180000
      4          8           0        0.000000    0.000000   -3.340000
 ---------------------------------------------------------------------

 SCF Done:  E(ROHF) =  -299.223820277     A.U. after   13 cycles
 E2 =    -0.9654242188D+00 EUMP2 =    -0.30018924449556D+03
 CCSD(T)
 CCSD(T)= -0.30019694888D+03

 Unable to determine electronic state:  partially filled degenerate orbitals.
 Alpha  occ. eigenvalues --  -20.44887 -20.44887 -20.44173 -20.44173  -1.46249
 Alpha  occ. eigenvalues --   -1.46248  -0.88970  -0.88954  -0.56637  -0.56633
 Alpha  occ. eigenvalues --   -0.54599  -0.54597  -0.50963  -0.50894  -0.23526
 Alpha  occ. eigenvalues --   -0.23508  -0.20932  -0.20781
 Alpha virt. eigenvalues --    0.60745   0.65558   0.90034   0.90152   0.91289
 Alpha virt. eigenvalues --    0.91403   0.91807   0.95213   1.01149   1.01596
 Alpha virt. eigenvalues --    1.02452   1.02770   1.02936   1.05572   1.11069

 Mulliken charges and spin densities:
               1          2
     1  O   -0.278435   0.719417
     2  O   -0.221565   0.780583
     3  O   -0.221565   0.780583
     4  O   -0.278435   0.719417
 Sum of Mulliken charges =  -1.00000   3.00000

 Dipole moment (field-independent basis, Debye):
    X=             -0.0000    Y=             -0.0000    Z=              0.0000  Tot=              0.0000
 Quadrupole moment (field-independent basis, Debye-Ang):
   XX=            -21.3013   YY=            -22.4151   ZZ=            -64.2245
   XY=              0.0000   XZ=              0.0000   YZ=              0.0000

 8203\PMP2-0=-300.1892445\MP4SDQ=-300.162212\CCSD=-300.1593784\CCSD(T)=
 Normal termination of Gaussian 16 at Sun Feb 18 01:18:50 2024.
