 Gaussian 16, Revision A.03,
 Gaussian 16:  ES64L-G16RevA.03 25-Dec-2016

 -----------------------------------------------
 #p ROCCSD(T,MaxCyc=200)/cc-pVTZ SCF(MaxCyc=200)
 -----------------------------------------------

 ---------
 O2_O2_231
 ---------
 Symbolic Z-matrix:
 Charge = -1 Multiplicity = 4

                         Standard orientation:
 ---------------------------------------------------------------------
 Center     Atomic      Atomic             Coordinates (Angstroms)
 Number     Number       Type             X           Y           Z
 ---------------------------------------------------------------------
      1          8           0        0.000000    0.000000    3.200000
      2          8           0        0.000000    0.000000    2.040000
      3          8           0        0.000000    0.000000   -2.040000
      4          8           0        0.000000    0.000000   -3.200000
 ---------------------------------------------------------------------

 SCF Done:  E(ROHF) =  -299.223694560     A.U. after   13 cycles
 E2 =    -0.9652048155D+00 EUMP2 =    -0.30018889937589D+03
 CCSD(T)
 CCSD(T)= -0.30019693318D+03

 Unable to determine electronic state:  partially filled degenerate orbitals.
 Alpha  occ. eigenvalues --  -20.44645 -20.44645 -20.43862 -20.43862  -1.45981
 Alpha  occ. eigenvalues --   -1.45979  -0.88701  -0.88666  -0.56371  -0.56362
 Alpha  occ. eigenvalues --   -0.54334  -0.54327  -0.50711  -0.50578  -0.23262
 Alpha  occ. eigenvalues --   -0.23225  -0.20672  -0.20500
 Alpha virt. eigenvalues --    0.59593   0.67010   0.90216   0.90472   0.90774
 Alpha virt. eigenvalues --    0.91472   0.91723   0.96676   1.01169   1.02126
 Alpha virt. eigenvalues --    1.02472   1.02894   1.03303   1.07379   1.11318

 Mulliken charges and spin densities:
               1          2
     1  O   -0.281286   0.716133
     2  O   -0.218714   0.783867
     3  O   -0.218714   0.783867
     4  O   -0.281286   0.716133
 Sum of Mulliken charges =  -1.00000   3.00000

 Dipole moment (field-independent basis, Debye):
    X=             -0.0000    Y=              0.0000    Z=              0.0000  Tot=              0.0000
 Quadrupole moment (field-independent basis, Debye-Ang):
   XX=            -21.3024   YY=            -22.4141   ZZ=            -60.7294
   XY=              0.0000   XZ=              0.0000   YZ=              0.0000

 Normal termination of Gaussian 16 at Sun Feb 18 01:07:51 2024.
