 Gaussian 16, Revision A.03,
 Gaussian 16:  ES64L-G16RevA.03 25-Dec-2016

 -----------------------------------------------
 #p ROCCSD(T,MaxCyc=200)/cc-pVTZ SCF(MaxCyc=200)
 -----------------------------------------------

 ---------
 O2_O2_291
 ---------
 Symbolic Z-matrix:
 Charge = -1 Multiplicity = 4

                         Standard orientation:
 ---------------------------------------------------------------------
 Center     Atomic      Atomic             Coordinates (Angstroms)
 Number     Number       Type             X           Y           Z
 ---------------------------------------------------------------------
      1          8           0        0.000000    0.000000    3.600000
      2          8           0        0.000000    0.000000    2.440000
      3          8           0        0.000000    0.000000   -2.440000
      4          8           0        0.000000    0.000000   -3.600000
 ---------------------------------------------------------------------

 SCF Done:  E(ROHF) =  -299.223894817     A.U. after   13 cycles
 E2 =    -0.9658285271D+00 EUMP2 =    -0.30018972334374D+03
 CCSD(T)
 CCSD(T)= -0.30019692427D+03

 Unable to determine electronic state:  partially filled degenerate orbitals.
 Alpha  occ. eigenvalues --  -20.45270 -20.45270 -20.44667 -20.44667  -1.46677
 Alpha  occ. eigenvalues --   -1.46677  -0.89406  -0.89403  -0.57063  -0.57063
 Alpha  occ. eigenvalues --   -0.55026  -0.55025  -0.51387  -0.51369  -0.23955
 Alpha  occ. eigenvalues --   -0.23952  -0.21358  -0.21222
 Alpha virt. eigenvalues --    0.61985   0.63575   0.89670   0.89693   0.90924
 Alpha virt. eigenvalues --    0.90944   0.92633   0.93537   1.00892   1.00982
 Alpha virt. eigenvalues --    1.02155   1.02195   1.03122   1.03916   1.10658

 Mulliken charges and spin densities:
               1          2
     1  O   -0.273877   0.724405
     2  O   -0.226123   0.775595
     3  O   -0.226123   0.775595
     4  O   -0.273877   0.724405
 Sum of Mulliken charges =  -1.00000   3.00000

 Dipole moment (field-independent basis, Debye):
    X=             -0.0000    Y=              0.0000    Z=              0.0000  Tot=              0.0000
 Quadrupole moment (field-independent basis, Debye-Ang):
   XX=            -22.4150   YY=            -21.2996   ZZ=            -71.2481
   XY=              0.0000   XZ=              0.0000   YZ=              0.0000

 8948\PMP2-0=-300.1897233\MP4SDQ=-300.162143\CCSD=-300.1593688\CCSD(T)=
 Normal termination of Gaussian 16 at Sun Feb 18 01:39:24 2024.
