 Gaussian 16, Revision A.03,
 Gaussian 16:  ES64L-G16RevA.03 25-Dec-2016

 -----------------------------------------------
 #p ROCCSD(T,MaxCyc=200)/cc-pVTZ SCF(MaxCyc=200)
 -----------------------------------------------

 --------
 O2_O2_43
 --------
 Symbolic Z-matrix:
 Charge = -1 Multiplicity = 4

                         Standard orientation:
 ---------------------------------------------------------------------
 Center     Atomic      Atomic             Coordinates (Angstroms)
 Number     Number       Type             X           Y           Z
 ---------------------------------------------------------------------
      1          8           0        0.615183   -1.685183    0.000000
      2          8           0       -0.205061   -0.864939    0.000000
      3          8           0       -0.205061    0.695062   -0.000000
      4          8           0       -0.205061    1.855060   -0.000000
 ---------------------------------------------------------------------

 SCF Done:  E(ROHF) =  -299.127117214     A.U. after   22 cycles
 E2 =    -0.9366086077D+00 EUMP2 =    -0.30006372582222D+03
 CCSD(T)
 CCSD(T)= -0.30009856862D+03

 The electronic state is 4-A".
 Alpha  occ. eigenvalues --  -20.50870 -20.41306 -20.31096 -20.30782  -1.49757
 Alpha  occ. eigenvalues --   -1.35067  -0.98576  -0.77306  -0.59596  -0.59318
 Alpha  occ. eigenvalues --   -0.54394  -0.45520  -0.42633  -0.33765  -0.24650
 Alpha  occ. eigenvalues --   -0.19934  -0.12398  -0.08027
 Alpha virt. eigenvalues --    0.67741   0.75685   0.90585   0.91301   0.93067
 Alpha virt. eigenvalues --    0.98489   1.00233   1.00679   1.02915   1.06021
 Alpha virt. eigenvalues --    1.12335   1.15001   1.20491   1.23812   1.27119

 Mulliken charges and spin densities:
               1          2
     1  O   -0.364106   0.607051
     2  O    0.162219   1.215973
     3  O   -0.375156   0.546729
     4  O   -0.422957   0.630248
 Sum of Mulliken charges =  -1.00000   3.00000

 Dipole moment (field-independent basis, Debye):
    X=             -0.2696    Y=             -2.4482    Z=              0.0000  Tot=              2.4630
 Quadrupole moment (field-independent basis, Debye-Ang):
   XX=            -22.8309   YY=            -36.9829   ZZ=            -22.2435
   XY=              3.2729   XZ=             -0.0000   YZ=              0.0000

 39\CCSD=-300.0595612\CCSD(T)=-300.0985686\RMSD=6.244e-09\PG=CS [SG(O4)
 Normal termination of Gaussian 16 at Sat Feb 17 21:24:08 2024.
