 Gaussian 16, Revision A.03,
 Gaussian 16:  ES64L-G16RevA.03 25-Dec-2016

 -----------------------------------------------
 #p ROCCSD(T,MaxCyc=200)/cc-pVTZ SCF(MaxCyc=200)
 -----------------------------------------------

 ---------
 O2_O2_121
 ---------
 Symbolic Z-matrix:
 Charge = -1 Multiplicity = 4

                         Standard orientation:
 ---------------------------------------------------------------------
 Center     Atomic      Atomic             Coordinates (Angstroms)
 Number     Number       Type             X           Y           Z
 ---------------------------------------------------------------------
      1          8           0        0.615183   -2.205183    0.000000
      2          8           0       -0.205061   -1.384939    0.000000
      3          8           0       -0.205061    1.215062   -0.000000
      4          8           0       -0.205061    2.375060   -0.000000
 ---------------------------------------------------------------------

 SCF Done:  E(ROHF) =  -299.229832130     A.U. after   22 cycles
 E2 =    -0.9643399870D+00 EUMP2 =    -0.30019417211694D+03
 CCSD(T)
 CCSD(T)= -0.30020538204D+03

 The electronic state is 4-A".
 Alpha  occ. eigenvalues --  -20.43250 -20.43030 -20.41466 -20.41170  -1.44158
 Alpha  occ. eigenvalues --   -1.43823  -0.87346  -0.85920  -0.54577  -0.54253
 Alpha  occ. eigenvalues --   -0.52540  -0.52072  -0.49666  -0.47233  -0.21427
 Alpha  occ. eigenvalues --   -0.20851  -0.18886  -0.18024
 Alpha virt. eigenvalues --    0.64979   0.70049   0.89096   0.90460   0.91682
 Alpha virt. eigenvalues --    0.94859   0.95082   0.99330   1.01023   1.04780
 Alpha virt. eigenvalues --    1.06834   1.08980   1.11662   1.12549   1.13530

 Mulliken charges and spin densities:
               1          2
     1  O   -0.306853   0.685030
     2  O   -0.195594   0.813033
     3  O   -0.187694   0.814016
     4  O   -0.309859   0.687922
 Sum of Mulliken charges =  -1.00000   3.00000

 Dipole moment (field-independent basis, Debye):
    X=             -0.2069    Y=             -0.0469    Z=             -0.0000  Tot=              0.2121
 Quadrupole moment (field-independent basis, Debye-Ang):
   XX=            -22.6728   YY=            -42.4654   ZZ=            -22.4935
   XY=              3.3317   XZ=             -0.0000   YZ=              0.0000

 07623\CCSD=-300.1674821\CCSD(T)=-300.205382\RMSD=9.026e-09\PG=CS [SG(O
 Normal termination of Gaussian 16 at Sat Feb 17 23:25:08 2024.
