 Gaussian 16, Revision A.03,
 Gaussian 16:  ES64L-G16RevA.03 25-Dec-2016

 -----------------------------------------------
 #p ROCCSD(T,MaxCyc=200)/cc-pVTZ SCF(MaxCyc=200)
 -----------------------------------------------

 ---------
 O2_O2_198
 ---------
 Symbolic Z-matrix:
 Charge = -1 Multiplicity = 4

                         Standard orientation:
 ---------------------------------------------------------------------
 Center     Atomic      Atomic             Coordinates (Angstroms)
 Number     Number       Type             X           Y           Z
 ---------------------------------------------------------------------
      1          8           0        0.000000    0.000000    2.980000
      2          8           0        0.000000    0.000000    1.820000
      3          8           0        0.000000    0.000000   -1.820000
      4          8           0        0.000000    0.000000   -2.980000
 ---------------------------------------------------------------------

 SCF Done:  E(ROHF) =  -299.225211324     A.U. after   13 cycles
 E2 =    -0.9649713788D+00 EUMP2 =    -0.30019018270262D+03
 CCSD(T)
 CCSD(T)= -0.30019879747D+03

 Unable to determine electronic state:  partially filled degenerate orbitals.
 Alpha  occ. eigenvalues --  -20.44329 -20.44329 -20.43340 -20.43340  -1.45560
 Alpha  occ. eigenvalues --   -1.45554  -0.88288  -0.88171  -0.55952  -0.55926
 Alpha  occ. eigenvalues --   -0.53912  -0.53881  -0.50352  -0.50003  -0.22860
 Alpha  occ. eigenvalues --   -0.22751  -0.20134  -0.20120
 Alpha virt. eigenvalues --    0.58244   0.69227   0.88881   0.90368   0.91114
 Alpha virt. eigenvalues --    0.91618   0.92375   0.99267   1.00818   1.01991
 Alpha virt. eigenvalues --    1.03373   1.03519   1.04836   1.10777   1.11717

 Mulliken charges and spin densities:
               1          2
     1  O   -0.285752   0.709983
     2  O   -0.214248   0.790017
     3  O   -0.214248   0.790017
     4  O   -0.285752   0.709983
 Sum of Mulliken charges =  -1.00000   3.00000

 Dipole moment (field-independent basis, Debye):
    X=             -0.0000    Y=             -0.0000    Z=              0.0000  Tot=              0.0000
 Quadrupole moment (field-independent basis, Debye-Ang):
   XX=            -21.3067   YY=            -22.4334   ZZ=            -55.5769
   XY=              0.0000   XZ=              0.0000   YZ=              0.0000

 113\PMP2-0=-300.1901827\MP4SDQ=-300.1641342\CCSD=-300.1611767\CCSD(T)=
 Normal termination of Gaussian 16 at Sun Feb 18 00:49:31 2024.
