 Gaussian 16, Revision A.03,
 Gaussian 16:  ES64L-G16RevA.03 25-Dec-2016

 -----------------------------------------------
 #p ROCCSD(T,MaxCyc=200)/cc-pVTZ SCF(MaxCyc=200)
 -----------------------------------------------

 ---------
 O2_O2_297
 ---------
 Symbolic Z-matrix:
 Charge = -1 Multiplicity = 4

                         Standard orientation:
 ---------------------------------------------------------------------
 Center     Atomic      Atomic             Coordinates (Angstroms)
 Number     Number       Type             X           Y           Z
 ---------------------------------------------------------------------
      1          8           0        0.000000    0.000000    3.640000
      2          8           0        0.000000    0.000000    2.480000
      3          8           0        0.000000    0.000000   -2.480000
      4          8           0        0.000000    0.000000   -3.640000
 ---------------------------------------------------------------------

 SCF Done:  E(ROHF) =  -299.223898466     A.U. after   13 cycles
 E2 =    -0.9658873827D+00 EUMP2 =    -0.30018978584845D+03
 CCSD(T)
 CCSD(T)= -0.30019691888D+03

 Unable to determine electronic state:  partially filled degenerate orbitals.
 Alpha  occ. eigenvalues --  -20.45323 -20.45323 -20.44735 -20.44735  -1.46737
 Alpha  occ. eigenvalues --   -1.46737  -0.89467  -0.89465  -0.57123  -0.57122
 Alpha  occ. eigenvalues --   -0.55085  -0.55084  -0.51447  -0.51433  -0.24015
 Alpha  occ. eigenvalues --   -0.24012  -0.21417  -0.21282
 Alpha virt. eigenvalues --    0.62067   0.63367   0.89615   0.89633   0.90869
 Alpha virt. eigenvalues --    0.90884   0.92662   0.93378   1.00843   1.00911
 Alpha virt. eigenvalues --    1.02084   1.02145   1.03126   1.03769   1.10600

 Mulliken charges and spin densities:
               1          2
     1  O   -0.273266   0.725065
     2  O   -0.226734   0.774935
     3  O   -0.226734   0.774935
     4  O   -0.273266   0.725065
 Sum of Mulliken charges =  -1.00000   3.00000

 Dipole moment (field-independent basis, Debye):
    X=             -0.0000    Y=              0.0000    Z=             -0.0000  Tot=              0.0000
 Quadrupole moment (field-independent basis, Debye-Ang):
   XX=            -22.4149   YY=            -21.2994   ZZ=            -72.3892
   XY=              0.0000   XZ=              0.0000   YZ=              0.0000

 985\PMP2-0=-300.1897858\MP4SDQ=-300.1621303\CCSD=-300.1593641\CCSD(T)=
 Normal termination of Gaussian 16 at Sun Feb 18 01:42:36 2024.
