 Gaussian 16, Revision A.03,
 Gaussian 16:  ES64L-G16RevA.03 25-Dec-2016

 -----------------------------------------------
 #p ROCCSD(T,MaxCyc=200)/cc-pVTZ SCF(MaxCyc=200)
 -----------------------------------------------

 --------
 O2_O2_53
 --------
 Symbolic Z-matrix:
 Charge = -1 Multiplicity = 4

                         Standard orientation:
 ---------------------------------------------------------------------
 Center     Atomic      Atomic             Coordinates (Angstroms)
 Number     Number       Type             X           Y           Z
 ---------------------------------------------------------------------
      1          8           0       -0.870000   -1.130000    0.000000
      2          8           0        0.290000   -1.130000    0.000000
      3          8           0        0.290000    0.550000    0.000000
      4          8           0        0.290000    1.710000    0.000000
 ---------------------------------------------------------------------

 SCF Done:  E(ROHF) =  -299.152983410     A.U. after   28 cycles
 E2 =    -0.9227989462D+00 EUMP2 =    -0.30007578235587D+03
 CCSD(T)
 CCSD(T)= -0.30011999698D+03

 The electronic state is 4-A'.
 Alpha  occ. eigenvalues --  -20.49703 -20.45092 -20.27806 -20.26869  -1.50546
 Alpha  occ. eigenvalues --   -1.31412  -0.94035  -0.78929  -0.59766  -0.58377
 Alpha  occ. eigenvalues --   -0.53753  -0.42559  -0.39874  -0.33765  -0.26375
 Alpha  occ. eigenvalues --   -0.22654  -0.09346  -0.04900
 Alpha virt. eigenvalues --    0.62594   0.76049   0.86487   0.89949   0.92876
 Alpha virt. eigenvalues --    0.99785   1.00232   1.00953   1.02434   1.09643
 Alpha virt. eigenvalues --    1.14177   1.15218   1.19134   1.25571   1.27580

 Mulliken charges and spin densities:
               1          2
     1  O   -0.155351   0.820065
     2  O    0.028726   1.076042
     3  O   -0.401967   0.533110
     4  O   -0.471407   0.570783
 Sum of Mulliken charges =  -1.00000   3.00000

 Dipole moment (field-independent basis, Debye):
    X=             -0.4321    Y=             -3.7548    Z=              0.0000  Tot=              3.7796
 Quadrupole moment (field-independent basis, Debye-Ang):
   XX=            -24.1465   YY=            -33.0464   ZZ=            -21.2399
   XY=             -2.4665   XZ=              0.0000   YZ=              0.0000

 55\CCSD(T)=-300.119997\RMSD=4.285e-09\PG=CS [SG(O4)]\\@
 Normal termination of Gaussian 16 at Sat Feb 17 21:41:28 2024.
