 Gaussian 16, Revision A.03,
 Gaussian 16:  ES64L-G16RevA.03 25-Dec-2016

 -----------------------------------------------
 #p ROCCSD(T,MaxCyc=200)/cc-pVTZ SCF(MaxCyc=200)
 -----------------------------------------------

 ---------
 O2_O2_195
 ---------
 Symbolic Z-matrix:
 Charge = -1 Multiplicity = 4

                         Standard orientation:
 ---------------------------------------------------------------------
 Center     Atomic      Atomic             Coordinates (Angstroms)
 Number     Number       Type             X           Y           Z
 ---------------------------------------------------------------------
      1          8           0        0.000000    0.000000    2.960000
      2          8           0        0.000000    0.000000    1.800000
      3          8           0        0.000000    0.000000   -1.800000
      4          8           0        0.000000    0.000000   -2.960000
 ---------------------------------------------------------------------

 SCF Done:  E(ROHF) =  -299.225319431     A.U. after   13 cycles
 E2 =    -0.9649499883D+00 EUMP2 =    -0.30019026941916D+03
 CCSD(T)
 CCSD(T)= -0.30019894809D+03

 Unable to determine electronic state:  partially filled degenerate orbitals.
 Alpha  occ. eigenvalues --  -20.44294 -20.44294 -20.43286 -20.43286  -1.45516
 Alpha  occ. eigenvalues --   -1.45510  -0.88247  -0.88118  -0.55909  -0.55880
 Alpha  occ. eigenvalues --   -0.53869  -0.53835  -0.50319  -0.49939  -0.22819
 Alpha  occ. eigenvalues --   -0.22700  -0.20082  -0.20079
 Alpha virt. eigenvalues --    0.58230   0.69397   0.88745   0.90370   0.91184
 Alpha virt. eigenvalues --    0.91620   0.92447   0.99484   1.00759   1.01932
 Alpha virt. eigenvalues --    1.03466   1.03696   1.05015   1.10892   1.11757

 Mulliken charges and spin densities:
               1          2
     1  O   -0.286223   0.709339
     2  O   -0.213777   0.790661
     3  O   -0.213777   0.790661
     4  O   -0.286223   0.709339
 Sum of Mulliken charges =  -1.00000   3.00000

 Dipole moment (field-independent basis, Debye):
    X=             -0.0000    Y=              0.0000    Z=              0.0000  Tot=              0.0000
 Quadrupole moment (field-independent basis, Debye-Ang):
   XX=            -21.3071   YY=            -22.4348   ZZ=            -55.1353
   XY=              0.0000   XZ=              0.0000   YZ=              0.0000

 194\PMP2-0=-300.1902694\MP4SDQ=-300.1642878\CCSD=-300.1613216\CCSD(T)=
 Normal termination of Gaussian 16 at Sun Feb 18 00:47:58 2024.
