 Gaussian 16, Revision A.03,
 Gaussian 16:  ES64L-G16RevA.03 25-Dec-2016

 -----------------------------------------------
 #p ROCCSD(T,MaxCyc=200)/cc-pVTZ SCF(MaxCyc=200)
 -----------------------------------------------

 ---------
 O2_O2_122
 ---------
 Symbolic Z-matrix:
 Charge = -1 Multiplicity = 4

                         Standard orientation:
 ---------------------------------------------------------------------
 Center     Atomic      Atomic             Coordinates (Angstroms)
 Number     Number       Type             X           Y           Z
 ---------------------------------------------------------------------
      1          8           0       -0.870000   -1.590000    0.000000
      2          8           0        0.290000   -1.590000    0.000000
      3          8           0        0.290000    1.010000    0.000000
      4          8           0        0.290000    2.170000    0.000000
 ---------------------------------------------------------------------

 SCF Done:  E(ROHF) =  -299.233685807     A.U. after   26 cycles
 E2 =    -0.9637515748D+00 EUMP2 =    -0.30019743738142D+03
 CCSD(T)
 CCSD(T)= -0.30020932276D+03

 The electronic state is 4-A'.
 Alpha  occ. eigenvalues --  -20.42512 -20.41924 -20.41844 -20.40425  -1.43519
 Alpha  occ. eigenvalues --   -1.43199  -0.86477  -0.85681  -0.54041  -0.53464
 Alpha  occ. eigenvalues --   -0.52389  -0.51512  -0.48563  -0.46771  -0.20920
 Alpha  occ. eigenvalues --   -0.20335  -0.18479  -0.17126
 Alpha virt. eigenvalues --    0.64797   0.69003   0.89156   0.90647   0.92907
 Alpha virt. eigenvalues --    0.94978   0.96058   0.99964   1.01106   1.03052
 Alpha virt. eigenvalues --    1.05520   1.08062   1.08386   1.13606   1.18696

 Mulliken charges and spin densities:
               1          2
     1  O   -0.268176   0.731573
     2  O   -0.228398   0.772311
     3  O   -0.184015   0.819531
     4  O   -0.319412   0.676585
 Sum of Mulliken charges =  -1.00000   3.00000

 Dipole moment (field-independent basis, Debye):
    X=              0.0943    Y=             -0.3732    Z=              0.0000  Tot=              0.3850
 Quadrupole moment (field-independent basis, Debye-Ang):
   XX=            -24.4850   YY=            -38.0129   ZZ=            -21.3273
   XY=             -2.5096   XZ=              0.0000   YZ=              0.0000

 8\CCSD(T)=-300.2093228\RMSD=9.927e-09\PG=CS [SG(O4)]\\@
 Normal termination of Gaussian 16 at Sat Feb 17 23:26:47 2024.
