 Gaussian 16, Revision A.03,
 Gaussian 16:  ES64L-G16RevA.03 25-Dec-2016

 -----------------------------------------------
 #p ROCCSD(T,MaxCyc=200)/cc-pVTZ SCF(MaxCyc=200)
 -----------------------------------------------

 ---------
 O2_O2_288
 ---------
 Symbolic Z-matrix:
 Charge = -1 Multiplicity = 4

                         Standard orientation:
 ---------------------------------------------------------------------
 Center     Atomic      Atomic             Coordinates (Angstroms)
 Number     Number       Type             X           Y           Z
 ---------------------------------------------------------------------
      1          8           0        0.000000    0.000000    3.580000
      2          8           0        0.000000    0.000000    2.420000
      3          8           0        0.000000    0.000000   -2.420000
      4          8           0        0.000000    0.000000   -3.580000
 ---------------------------------------------------------------------

 SCF Done:  E(ROHF) =  -299.223892537     A.U. after   13 cycles
 E2 =    -0.9657986707D+00 EUMP2 =    -0.30018969120806D+03
 CCSD(T)
 CCSD(T)= -0.30019692692D+03

 Unable to determine electronic state:  partially filled degenerate orbitals.
 Alpha  occ. eigenvalues --  -20.45243 -20.45243 -20.44633 -20.44633  -1.46647
 Alpha  occ. eigenvalues --   -1.46647  -0.89375  -0.89372  -0.57033  -0.57032
 Alpha  occ. eigenvalues --   -0.54996  -0.54995  -0.51357  -0.51337  -0.23925
 Alpha  occ. eigenvalues --   -0.23921  -0.21327  -0.21191
 Alpha virt. eigenvalues --    0.61935   0.63688   0.89697   0.89724   0.90951
 Alpha virt. eigenvalues --    0.90975   0.92611   0.93624   1.00917   1.01019
 Alpha virt. eigenvalues --    1.02192   1.02219   1.03117   1.03998   1.10687

 Mulliken charges and spin densities:
               1          2
     1  O   -0.274191   0.724065
     2  O   -0.225809   0.775935
     3  O   -0.225809   0.775935
     4  O   -0.274191   0.724065
 Sum of Mulliken charges =  -1.00000   3.00000

 Dipole moment (field-independent basis, Debye):
    X=             -0.0000    Y=             -0.0000    Z=             -0.0000  Tot=              0.0000
 Quadrupole moment (field-independent basis, Debye-Ang):
   XX=            -21.2997   YY=            -22.4151   ZZ=            -70.6835
   XY=              0.0000   XZ=              0.0000   YZ=              0.0000

 25\PMP2-0=-300.1896912\MP4SDQ=-300.1621493\CCSD=-300.159371\CCSD(T)=-3
 Normal termination of Gaussian 16 at Sun Feb 18 01:37:50 2024.
