 Gaussian 16, Revision A.03,
 Gaussian 16:  ES64L-G16RevA.03 25-Dec-2016

 -----------------------------------------------
 #p ROCCSD(T,MaxCyc=200)/cc-pVTZ SCF(MaxCyc=200)
 -----------------------------------------------

 ---------
 O2_O2_162
 ---------
 Symbolic Z-matrix:
 Charge = -1 Multiplicity = 4

                         Standard orientation:
 ---------------------------------------------------------------------
 Center     Atomic      Atomic             Coordinates (Angstroms)
 Number     Number       Type             X           Y           Z
 ---------------------------------------------------------------------
      1          8           0        0.000000    0.000000    2.740000
      2          8           0        0.000000    0.000000    1.580000
      3          8           0        0.000000    0.000000   -1.580000
      4          8           0        0.000000    0.000000   -2.740000
 ---------------------------------------------------------------------

 SCF Done:  E(ROHF) =  -299.227070937     A.U. after   13 cycles
 E2 =    -0.9647306323D+00 EUMP2 =    -0.30019180156879D+03
 CCSD(T)
 CCSD(T)= -0.30020131179D+03

 Unable to determine electronic state:  partially filled degenerate orbitals.
 Alpha  occ. eigenvalues --  -20.43896 -20.43895 -20.42621 -20.42621  -1.45000
 Alpha  occ. eigenvalues --   -1.44976  -0.87809  -0.87423  -0.55405  -0.55318
 Alpha  occ. eigenvalues --   -0.53361  -0.53266  -0.50015  -0.49067  -0.22364
 Alpha  occ. eigenvalues --   -0.22054  -0.19610  -0.19407
 Alpha virt. eigenvalues --    0.59935   0.70701   0.88240   0.90141   0.91381
 Alpha virt. eigenvalues --    0.92089   0.93362   0.99873   1.01057   1.01450
 Alpha virt. eigenvalues --    1.05086   1.06414   1.07750   1.11412   1.12224

 Mulliken charges and spin densities:
               1          2
     1  O   -0.293401   0.701107
     2  O   -0.206599   0.798893
     3  O   -0.206599   0.798893
     4  O   -0.293401   0.701107
 Sum of Mulliken charges =  -1.00000   3.00000

 Dipole moment (field-independent basis, Debye):
    X=             -0.0000    Y=             -0.0000    Z=              0.0000  Tot=              0.0000
 Quadrupole moment (field-independent basis, Debye-Ang):
   XX=            -22.4557   YY=            -21.3124   ZZ=            -50.5427
   XY=              0.0000   XZ=              0.0000   YZ=              0.0000

 709\PMP2-0=-300.1918016\MP4SDQ=-300.1666916\CCSD=-300.1636099\CCSD(T)=
 Normal termination of Gaussian 16 at Sun Feb 18 00:12:10 2024.
