 Gaussian 16, Revision A.03,
 Gaussian 16:  ES64L-G16RevA.03 25-Dec-2016

 -----------------------------------------------
 #p ROCCSD(T,MaxCyc=200)/cc-pVTZ SCF(MaxCyc=200)
 -----------------------------------------------

 ---------
 O2_O2_219
 ---------
 Symbolic Z-matrix:
 Charge = -1 Multiplicity = 4

                         Standard orientation:
 ---------------------------------------------------------------------
 Center     Atomic      Atomic             Coordinates (Angstroms)
 Number     Number       Type             X           Y           Z
 ---------------------------------------------------------------------
      1          8           0        0.000000    0.000000    3.120000
      2          8           0        0.000000    0.000000    1.960000
      3          8           0        0.000000    0.000000   -1.960000
      4          8           0        0.000000    0.000000   -3.120000
 ---------------------------------------------------------------------

 SCF Done:  E(ROHF) =  -299.223563782     A.U. after   13 cycles
 E2 =    -0.9650852007D+00 EUMP2 =    -0.30018864898289D+03
 CCSD(T)
 CCSD(T)= -0.30019689639D+03

 Unable to determine electronic state:  partially filled degenerate orbitals.
 Alpha  occ. eigenvalues --  -20.44492 -20.44492 -20.43667 -20.43667  -1.45813
 Alpha  occ. eigenvalues --   -1.45811  -0.88536  -0.88482  -0.56205  -0.56192
 Alpha  occ. eigenvalues --   -0.54169  -0.54158  -0.50561  -0.50371  -0.23100
 Alpha  occ. eigenvalues --   -0.23044  -0.20514  -0.20321
 Alpha virt. eigenvalues --    0.58934   0.67871   0.90063   0.90304   0.90689
 Alpha virt. eigenvalues --    0.91559   0.91940   0.97634   1.01111   1.02413
 Alpha virt. eigenvalues --    1.02539   1.02982   1.03717   1.08832   1.11469

 Mulliken charges and spin densities:
               1          2
     1  O   -0.283017   0.714029
     2  O   -0.216983   0.785971
     3  O   -0.216983   0.785971
     4  O   -0.283017   0.714029
 Sum of Mulliken charges =  -1.00000   3.00000

 Dipole moment (field-independent basis, Debye):
    X=             -0.0000    Y=              0.0000    Z=              0.0000  Tot=              0.0000
 Quadrupole moment (field-independent basis, Debye-Ang):
   XX=            -21.3032   YY=            -22.4129   ZZ=            -58.8251
   XY=              0.0000   XZ=              0.0000   YZ=              0.0000

 638\PMP2-0=-300.188649\MP4SDQ=-300.1621767\CCSD=-300.1592802\CCSD(T)=-
 Normal termination of Gaussian 16 at Sun Feb 18 01:00:47 2024.
