 Gaussian 16, Revision A.03,
 Gaussian 16:  ES64L-G16RevA.03 25-Dec-2016

 -----------------------------------------------
 #p ROCCSD(T,MaxCyc=200)/cc-pVTZ SCF(MaxCyc=200)
 -----------------------------------------------

 --------
 O2_O2_75
 --------
 Symbolic Z-matrix:
 Charge = -1 Multiplicity = 4

                         Standard orientation:
 ---------------------------------------------------------------------
 Center     Atomic      Atomic             Coordinates (Angstroms)
 Number     Number       Type             X           Y           Z
 ---------------------------------------------------------------------
      1          8           0        0.000000    0.000000    2.160000
      2          8           0        0.000000    0.000000    1.000000
      3          8           0        0.000000    0.000000   -1.000000
      4          8           0        0.000000    0.000000   -2.160000
 ---------------------------------------------------------------------

 SCF Done:  E(ROHF) =  -299.218492484     A.U. after   13 cycles
 E2 =    -0.9639414387D+00 EUMP2 =    -0.30018243392298D+03
 CCSD(T)
 CCSD(T)= -0.30019607181D+03

 Unable to determine electronic state:  an orbital has unidentified symmetry.
 Alpha  occ. eigenvalues --  -20.41870 -20.41868 -20.39610 -20.39610  -1.43300
 Alpha  occ. eigenvalues --   -1.42549  -0.89109  -0.82627  -0.53964  -0.52510
 Alpha  occ. eigenvalues --   -0.51971  -0.51733  -0.50461  -0.41732  -0.21585
 Alpha  occ. eigenvalues --   -0.18784  -0.18362  -0.15604
 Alpha virt. eigenvalues --    0.69585   0.71556   0.89885   0.91065   0.95127
 Alpha virt. eigenvalues --    0.96554   0.98908   1.00813   1.02225   1.05957
 Alpha virt. eigenvalues --    1.11816   1.13124   1.18981   1.19689   1.20242

 Mulliken charges and spin densities:
               1          2
     1  O   -0.346533   0.673218
     2  O   -0.153467   0.826782
     3  O   -0.153467   0.826782
     4  O   -0.346533   0.673218
 Sum of Mulliken charges =  -1.00000   3.00000

 Dipole moment (field-independent basis, Debye):
    X=             -0.0000    Y=              0.0000    Z=             -0.0000  Tot=              0.0000
 Quadrupole moment (field-independent basis, Debye-Ang):
   XX=            -22.5337   YY=            -21.3203   ZZ=            -41.0965
   XY=              0.0000   XZ=              0.0000   YZ=              0.0000

 5\PMP2-0=-300.1824339\MP4SDQ=-300.161769\CCSD=-300.1580336\CCSD(T)=-30
 Normal termination of Gaussian 16 at Sat Feb 17 22:16:48 2024.
