 Gaussian 16, Revision A.03,
 Gaussian 16:  ES64L-G16RevA.03 25-Dec-2016

 -----------------------------------------------
 #p ROCCSD(T,MaxCyc=200)/cc-pVTZ SCF(MaxCyc=200)
 -----------------------------------------------

 --------
 O2_O2_88
 --------
 Symbolic Z-matrix:
 Charge = -1 Multiplicity = 4

                         Standard orientation:
 ---------------------------------------------------------------------
 Center     Atomic      Atomic             Coordinates (Angstroms)
 Number     Number       Type             X           Y           Z
 ---------------------------------------------------------------------
      1          8           0        0.615183   -1.985183    0.000000
      2          8           0       -0.205061   -1.164939    0.000000
      3          8           0       -0.205061    0.995061   -0.000000
      4          8           0       -0.205061    2.155061   -0.000000
 ---------------------------------------------------------------------

 SCF Done:  E(ROHF) =  -299.225435421     A.U. after   25 cycles
 E2 =    -0.9641532359D+00 EUMP2 =    -0.30018958865721D+03
 CCSD(T)
 CCSD(T)= -0.30020262342D+03

 The electronic state is 4-A".
 Alpha  occ. eigenvalues --  -20.42837 -20.42076 -20.40597 -20.39210  -1.43759
 Alpha  occ. eigenvalues --   -1.42568  -0.88092  -0.83850  -0.54313  -0.53564
 Alpha  occ. eigenvalues --   -0.52226  -0.50711  -0.49810  -0.44306  -0.20966
 Alpha  occ. eigenvalues --   -0.19231  -0.18704  -0.16335
 Alpha virt. eigenvalues --    0.67537   0.71199   0.89089   0.90464   0.95271
 Alpha virt. eigenvalues --    0.96410   0.97410   1.01698   1.02389   1.05199
 Alpha virt. eigenvalues --    1.07146   1.12418   1.16303   1.16488   1.17832

 Mulliken charges and spin densities:
               1          2
     1  O   -0.337467   0.649557
     2  O   -0.176076   0.838827
     3  O   -0.156902   0.829165
     4  O   -0.329556   0.682451
 Sum of Mulliken charges =  -1.00000   3.00000

 Dipole moment (field-independent basis, Debye):
    X=             -0.3154    Y=              0.1414    Z=              0.0000  Tot=              0.3457
 Quadrupole moment (field-independent basis, Debye-Ang):
   XX=            -22.7680   YY=            -39.3736   ZZ=            -22.5228
   XY=              3.2803   XZ=             -0.0000   YZ=              0.0000

 0086\CCSD=-300.1645215\CCSD(T)=-300.2026234\RMSD=5.185e-10\PG=CS [SG(O
 Normal termination of Gaussian 16 at Sat Feb 17 22:36:36 2024.
