 Gaussian 16, Revision A.03,
 Gaussian 16:  ES64L-G16RevA.03 25-Dec-2016

 -----------------------------------------------
 #p ROCCSD(T,MaxCyc=200)/cc-pVTZ SCF(MaxCyc=200)
 -----------------------------------------------

 ---------
 O2_O2_187
 ---------
 Symbolic Z-matrix:
 Charge = -1 Multiplicity = 4

                         Standard orientation:
 ---------------------------------------------------------------------
 Center     Atomic      Atomic             Coordinates (Angstroms)
 Number     Number       Type             X           Y           Z
 ---------------------------------------------------------------------
      1          8           0        0.615183   -2.645183    0.000000
      2          8           0       -0.205061   -1.824939   -0.000000
      3          8           0       -0.205061    1.655062   -0.000000
      4          8           0       -0.205061    2.815060   -0.000000
 ---------------------------------------------------------------------

 SCF Done:  E(ROHF) =  -299.225750959     A.U. after   20 cycles
 E2 =    -0.9648116046D+00 EUMP2 =    -0.30019056256381D+03
 CCSD(T)
 CCSD(T)= -0.30019956008D+03

 The electronic state is 4-A".
 Alpha  occ. eigenvalues --  -20.44060 -20.44059 -20.43089 -20.42975  -1.45264
 Alpha  occ. eigenvalues --   -1.45245  -0.88031  -0.87852  -0.55645  -0.55611
 Alpha  occ. eigenvalues --   -0.53629  -0.53570  -0.50107  -0.49692  -0.22537
 Alpha  occ. eigenvalues --   -0.22453  -0.19868  -0.19801
 Alpha virt. eigenvalues --    0.60017   0.67806   0.87836   0.90734   0.91688
 Alpha virt. eigenvalues --    0.92425   0.92819   0.97520   1.01913   1.01945
 Alpha virt. eigenvalues --    1.03004   1.04801   1.05569   1.10783   1.12005

 Mulliken charges and spin densities:
               1          2
     1  O   -0.283594   0.712645
     2  O   -0.215242   0.787796
     3  O   -0.211895   0.793338
     4  O   -0.289269   0.706221
 Sum of Mulliken charges =  -1.00000   3.00000

 Dipole moment (field-independent basis, Debye):
    X=             -0.1224    Y=             -0.1041    Z=              0.0000  Tot=              0.1607
 Quadrupole moment (field-independent basis, Debye-Ang):
   XX=            -22.6008   YY=            -50.5216   ZZ=            -22.4380
   XY=              3.6173   XZ=             -0.0000   YZ=             -0.0000

 875\CCSD=-300.1619022\CCSD(T)=-300.1995601\RMSD=7.035e-09\PG=CS [SG(O4
 Normal termination of Gaussian 16 at Sun Feb 18 00:38:47 2024.
