 Gaussian 16, Revision A.03,
 Gaussian 16:  ES64L-G16RevA.03 25-Dec-2016

 -----------------------------------------------
 #p ROCCSD(T,MaxCyc=200)/cc-pVTZ SCF(MaxCyc=200)
 -----------------------------------------------

 -------
 O2_O2_3
 -------
 Symbolic Z-matrix:
 Charge = -1 Multiplicity = 4

                         Standard orientation:
 ---------------------------------------------------------------------
 Center     Atomic      Atomic             Coordinates (Angstroms)
 Number     Number       Type             X           Y           Z
 ---------------------------------------------------------------------
      1          8           0        0.000000    0.000000    1.680000
      2          8           0        0.000000    0.000000    0.520000
      3          8           0        0.000000    0.000000   -0.520000
      4          8           0        0.000000    0.000000   -1.680000
 ---------------------------------------------------------------------

 SCF Done:  E(ROHF) =  -298.604070676     A.U. after   12 cycles
 E2 =    -0.9812269127D+00 EUMP2 =    -0.29958529758850D+03
 CCSD(T)
 CCSD(T)= -0.29959719831D+03

 The electronic state is 4-SGU.
 Alpha  occ. eigenvalues --  -20.51406 -20.51293 -20.28270 -20.28268  -1.72137
 Alpha  occ. eigenvalues --   -1.40118  -1.23308  -0.75529  -0.75529  -0.67486
 Alpha  occ. eigenvalues --   -0.56390  -0.45659  -0.45659  -0.21835  -0.21835
 Alpha  occ. eigenvalues --   -0.06712  -0.06712   0.05346
 Alpha virt. eigenvalues --    0.64733   0.74162   0.80771   0.87547   0.87547
 Alpha virt. eigenvalues --    0.91686   1.01317   1.01317   1.10177   1.10177
 Alpha virt. eigenvalues --    1.11538   1.23838   1.23838   1.38941   1.53593

 Mulliken charges and spin densities:
               1          2
     1  O   -0.559915   0.374311
     2  O    0.059915   1.125689
     3  O    0.059915   1.125689
     4  O   -0.559915   0.374311
 Sum of Mulliken charges =  -1.00000   3.00000

 Dipole moment (field-independent basis, Debye):
    X=             -0.0000    Y=             -0.0000    Z=              0.0000  Tot=              0.0000
 Quadrupole moment (field-independent basis, Debye-Ang):
   XX=            -21.5378   YY=            -21.5378   ZZ=            -44.1388
   XY=             -0.0000   XZ=              0.0000   YZ=             -0.0000

 7\CCSD(T)=-299.5971983\RMSD=3.315e-09\PG=D*H [C*(O1O1.O1O1)]\\@
 Normal termination of Gaussian 16 at Sat Feb 17 20:18:07 2024.
