 Gaussian 16, Revision A.03,
 Gaussian 16:  ES64L-G16RevA.03 25-Dec-2016

 -----------------------------------------------
 #p ROCCSD(T,MaxCyc=200)/cc-pVTZ SCF(MaxCyc=200)
 -----------------------------------------------

 --------
 O2_O2_22
 --------
 Symbolic Z-matrix:
 Charge = -1 Multiplicity = 4

                         Standard orientation:
 ---------------------------------------------------------------------
 Center     Atomic      Atomic             Coordinates (Angstroms)
 Number     Number       Type             X           Y           Z
 ---------------------------------------------------------------------
      1          8           0        0.615183   -1.545183    0.000000
      2          8           0       -0.205061   -0.724939    0.000000
      3          8           0       -0.205061    0.555061   -0.000000
      4          8           0       -0.205061    1.715061   -0.000000
 ---------------------------------------------------------------------

 SCF Done:  E(ROHF) =  -298.936770632     A.U. after   18 cycles
 E2 =    -0.9468959016D+00 EUMP2 =    -0.29988366653315D+03
 CCSD(T)
 CCSD(T)= -0.29991349962D+03

 The electronic state is 4-A".
 Alpha  occ. eigenvalues --  -20.45998 -20.39531 -20.35007 -20.31796  -1.51737
 Alpha  occ. eigenvalues --   -1.39217  -1.09678  -0.73713  -0.60162  -0.60160
 Alpha  occ. eigenvalues --   -0.55972  -0.46137  -0.46056  -0.25246  -0.21491
 Alpha  occ. eigenvalues --   -0.18172  -0.10063  -0.05119
 Alpha virt. eigenvalues --    0.70878   0.75274   0.90691   0.91845   0.92135
 Alpha virt. eigenvalues --    0.96041   1.00317   1.01903   1.05653   1.08674
 Alpha virt. eigenvalues --    1.11569   1.13655   1.18792   1.24008   1.32079

 Mulliken charges and spin densities:
               1          2
     1  O   -0.555368   0.420613
     2  O    0.128675   1.040175
     3  O   -0.185612   0.794461
     4  O   -0.387695   0.744751
 Sum of Mulliken charges =  -1.00000   3.00000

 Dipole moment (field-independent basis, Debye):
    X=             -0.8900    Y=              0.1307    Z=             -0.0000  Tot=              0.8996
 Quadrupole moment (field-independent basis, Debye-Ang):
   XX=            -23.3461   YY=            -37.0178   ZZ=            -21.9021
   XY=              3.6889   XZ=             -0.0000   YZ=              0.0000

 9679\CCSD=-299.8742207\CCSD(T)=-299.9134996\RMSD=5.263e-09\PG=CS [SG(O
 Normal termination of Gaussian 16 at Sat Feb 17 20:48:19 2024.
