 Gaussian 16, Revision A.03,
 Gaussian 16:  ES64L-G16RevA.03 25-Dec-2016

 -----------------------------------------------
 #p ROCCSD(T,MaxCyc=200)/cc-pVTZ SCF(MaxCyc=200)
 -----------------------------------------------

 ---------
 O2_O2_194
 ---------
 Symbolic Z-matrix:
 Charge =  0 Multiplicity = 3

                         Standard orientation:
 ---------------------------------------------------------------------
 Center     Atomic      Atomic             Coordinates (Angstroms)
 Number     Number       Type             X           Y           Z
 ---------------------------------------------------------------------
      1          8           0       -0.870000   -2.070000    0.000000
      2          8           0        0.290000   -2.070000    0.000000
      3          8           0        0.290000    1.490000    0.000000
      4          8           0        0.290000    2.650000    0.000000
 ---------------------------------------------------------------------

 SCF Done:  E(ROHF) =  -299.252875363     A.U. after   28 cycles
 E2 =    -0.9209649757D+00 EUMP2 =    -0.30017384033905D+03
 CCSD(T)
 CCSD(T)= -0.30020067345D+03

 The electronic state is 3-A".
 Alpha  occ. eigenvalues --  -20.74320 -20.74188 -20.72889 -20.72773  -1.74780
 Alpha  occ. eigenvalues --   -1.69815  -1.17344  -1.08504  -0.84060  -0.84060
 Alpha  occ. eigenvalues --   -0.78595  -0.78445  -0.75126  -0.67327  -0.51263
 Alpha  occ. eigenvalues --   -0.51262  -0.44765
 Alpha virt. eigenvalues --    0.05005   0.39687   0.43461   0.64246   0.67574
 Alpha virt. eigenvalues --    0.67611   0.70486   0.72553   0.75202   0.77760
 Alpha virt. eigenvalues --    0.79631   0.80258   0.80970   0.82391   0.86592

 Mulliken charges and spin densities:
               1          2
     1  O   -0.000302   0.000016
     2  O    0.000827   0.000021
     3  O   -0.005021   0.995560
     4  O    0.004496   1.004403
 Sum of Mulliken charges =  -0.00000   2.00000

 Dipole moment (field-independent basis, Debye):
    X=              0.0045    Y=              0.0288    Z=              0.0000  Tot=              0.0291
 Quadrupole moment (field-independent basis, Debye-Ang):
   XX=            -20.3053   YY=            -19.3587   ZZ=            -20.5123
   XY=              0.0089   XZ=              0.0000   YZ=              0.0000

 CCSD(T)=-300.2006735\RMSD=4.708e-09\PG=CS [SG(O4)]\\@
 Normal termination of Gaussian 16 at Tue Feb 13 17:38:07 2024.
