 Gaussian 16, Revision A.03,
 Gaussian 16:  ES64L-G16RevA.03 25-Dec-2016

 -----------------------------------------------
 #p ROCCSD(T,MaxCyc=200)/cc-pVTZ SCF(MaxCyc=200)
 -----------------------------------------------

 ---------
 O2_O2_105
 ---------
 Symbolic Z-matrix:
 Charge =  0 Multiplicity = 3

                         Standard orientation:
 ---------------------------------------------------------------------
 Center     Atomic      Atomic             Coordinates (Angstroms)
 Number     Number       Type             X           Y           Z
 ---------------------------------------------------------------------
      1          8           0        0.000000    0.000000    2.360000
      2          8           0        0.000000    0.000000    1.200000
      3          8           0        0.000000    0.000000   -1.200000
      4          8           0        0.000000    0.000000   -2.360000
 ---------------------------------------------------------------------

 SCF Done:  E(ROHF) =  -299.060869714     A.U. after   13 cycles
 E2 =    -0.1119562633D+01 EUMP2 =    -0.30018043234756D+03
 CCSD(T)
 CCSD(T)= -0.30018436868D+03

 Unable to determine electronic state:  an orbital has unidentified symmetry.
 Alpha  occ. eigenvalues --  -20.76786 -20.76785 -20.74487 -20.74486  -1.73631
 Alpha  occ. eigenvalues --   -1.73395  -1.15279  -1.12568  -0.82602  -0.82090
 Alpha  occ. eigenvalues --   -0.79883  -0.76868  -0.75652  -0.75505  -0.49153
 Alpha  occ. eigenvalues --   -0.47981  -0.31458
 Alpha virt. eigenvalues --   -0.13943   0.42129   0.48616   0.64838   0.65286
 Alpha virt. eigenvalues --    0.69664   0.70743   0.70844   0.75918   0.76335
 Alpha virt. eigenvalues --    0.77369   0.82807   0.85064   0.86665   0.91057

 Mulliken charges and spin densities:
               1          2
     1  O   -0.034981   0.470687
     2  O    0.034981   0.529313
     3  O    0.034981   0.529313
     4  O   -0.034981   0.470687
 Sum of Mulliken charges =   0.00000   2.00000

 Dipole moment (field-independent basis, Debye):
    X=             -0.0000    Y=             -0.0000    Z=              0.0000  Tot=              0.0000
 Quadrupole moment (field-independent basis, Debye-Ang):
   XX=            -20.7509   YY=            -19.1455   ZZ=            -21.6003
   XY=              0.0000   XZ=              0.0000   YZ=              0.0000

 MP2-0=-300.1804323\MP4SDQ=-300.0761831\CCSD=-300.078467\CCSD(T)=-300.1
 Normal termination of Gaussian 16 at Tue Feb 13 15:13:44 2024.
