 Gaussian 16, Revision A.03,
 Gaussian 16:  ES64L-G16RevA.03 25-Dec-2016

 -----------------------------------------------
 #p ROCCSD(T,MaxCyc=200)/cc-pVTZ SCF(MaxCyc=200)
 -----------------------------------------------

 ---------
 O2_O2_133
 ---------
 Symbolic Z-matrix:
 Charge =  0 Multiplicity = 3

                         Standard orientation:
 ---------------------------------------------------------------------
 Center     Atomic      Atomic             Coordinates (Angstroms)
 Number     Number       Type             X           Y           Z
 ---------------------------------------------------------------------
      1          8           0        0.615183   -2.285183    0.000000
      2          8           0       -0.205061   -1.464939    0.000000
      3          8           0       -0.205061    1.295061    0.000000
      4          8           0       -0.205061    2.455061    0.000000
 ---------------------------------------------------------------------

 SCF Done:  E(ROHF) =  -299.072775156     A.U. after   20 cycles
 E2 =    -0.1160327454D+01 EUMP2 =    -0.30023310260968D+03
 CCSD(T)
 CCSD(T)= -0.30024280810D+03

 The electronic state is 3-A'.
 Alpha  occ. eigenvalues --  -20.75674 -20.75485 -20.75186 -20.75066  -1.73408
 Alpha  occ. eigenvalues --   -1.73267  -1.14241  -1.13176  -0.84374  -0.84152
 Alpha  occ. eigenvalues --   -0.78439  -0.76763  -0.74568  -0.73764  -0.51285
 Alpha  occ. eigenvalues --   -0.50950  -0.28477
 Alpha virt. eigenvalues --   -0.12765   0.39949   0.46237   0.64595   0.66599
 Alpha virt. eigenvalues --    0.67649   0.70175   0.71488   0.74473   0.77294
 Alpha virt. eigenvalues --    0.78433   0.79250   0.83748   0.85662   0.87175

 Mulliken charges and spin densities:
               1          2
     1  O    0.006823   0.555501
     2  O   -0.003431   0.444556
     3  O   -0.006903   0.433260
     4  O    0.003510   0.566682
 Sum of Mulliken charges =   0.00000   2.00000

 Dipole moment (field-independent basis, Debye):
    X=              0.0292    Y=             -0.0290    Z=             -0.0000  Tot=              0.0411
 Quadrupole moment (field-independent basis, Debye-Ang):
   XX=            -20.0398   YY=            -20.3743   ZZ=            -20.1311
   XY=              0.2953   XZ=              0.0000   YZ=              0.0000

 7\CCSD=-300.1122236\CCSD(T)=-300.2428081\RMSD=6.283e-09\PG=CS [SG(O4)]
 Normal termination of Gaussian 16 at Tue Feb 13 16:19:31 2024.
