 Gaussian 16, Revision A.03,
 Gaussian 16:  ES64L-G16RevA.03 25-Dec-2016

 -----------------------------------------------
 #p ROCCSD(T,MaxCyc=200)/cc-pVTZ SCF(MaxCyc=200)
 -----------------------------------------------

 ---------
 O2_O2_114
 ---------
 Symbolic Z-matrix:
 Charge =  0 Multiplicity = 3

                         Standard orientation:
 ---------------------------------------------------------------------
 Center     Atomic      Atomic             Coordinates (Angstroms)
 Number     Number       Type             X           Y           Z
 ---------------------------------------------------------------------
      1          8           0        0.000000    0.000000    2.420000
      2          8           0        0.000000    0.000000    1.260000
      3          8           0        0.000000    0.000000   -1.260000
      4          8           0        0.000000    0.000000   -2.420000
 ---------------------------------------------------------------------

 SCF Done:  E(ROHF) =  -299.081405068     A.U. after   16 cycles
 E2 =    -0.1136587376D+01 EUMP2 =    -0.30021799244450D+03
 CCSD(T)
 CCSD(T)= -0.30023735742D+03

 Unable to determine electronic state:  an orbital has unidentified symmetry.
 Alpha  occ. eigenvalues --  -20.75716 -20.75715 -20.75117 -20.75117  -1.73488
 Alpha  occ. eigenvalues --   -1.73325  -1.14737  -1.12780  -0.84462  -0.84144
 Alpha  occ. eigenvalues --   -0.79295  -0.75908  -0.74773  -0.73617  -0.51667
 Alpha  occ. eigenvalues --   -0.50665  -0.29191
 Alpha virt. eigenvalues --   -0.11896   0.41398   0.48441   0.64625   0.67120
 Alpha virt. eigenvalues --    0.68577   0.69110   0.71649   0.74900   0.75730
 Alpha virt. eigenvalues --    0.78415   0.81783   0.85421   0.86787   0.89052

 Mulliken charges and spin densities:
               1          2
     1  O   -0.002919   0.579387
     2  O    0.002919   0.420613
     3  O    0.002919   0.420613
     4  O   -0.002919   0.579387
 Sum of Mulliken charges =   0.00000   2.00000

 Dipole moment (field-independent basis, Debye):
    X=              0.0000    Y=              0.0000    Z=             -0.0000  Tot=              0.0000
 Quadrupole moment (field-independent basis, Debye-Ang):
   XX=            -20.1726   YY=            -19.6890   ZZ=            -20.5543
   XY=              0.0000   XZ=              0.0000   YZ=              0.0000

 \PMP2-0=-300.2179924\MP4SDQ=-300.1163463\CCSD=-300.1143336\CCSD(T)=-30
 Normal termination of Gaussian 16 at Tue Feb 13 15:34:14 2024.
