 Gaussian 16, Revision A.03,
 Gaussian 16:  ES64L-G16RevA.03 25-Dec-2016

 -----------------------------------------------
 #p ROCCSD(T,MaxCyc=200)/cc-pVTZ SCF(MaxCyc=200)
 -----------------------------------------------

 --------
 O2_O2_44
 --------
 Symbolic Z-matrix:
 Charge =  0 Multiplicity = 3

                         Standard orientation:
 ---------------------------------------------------------------------
 Center     Atomic      Atomic             Coordinates (Angstroms)
 Number     Number       Type             X           Y           Z
 ---------------------------------------------------------------------
      1          8           0       -0.870000   -1.070000    0.000000
      2          8           0        0.290000   -1.070000    0.000000
      3          8           0        0.290000    0.490000    0.000000
      4          8           0        0.290000    1.650000    0.000000
 ---------------------------------------------------------------------

 SCF Done:  E(ROHF) =  -299.085599617     A.U. after   24 cycles
 E2 =    -0.9492045579D+00 EUMP2 =    -0.30003480417470D+03
 CCSD(T)
 CCSD(T)= -0.30005970988D+03

 The electronic state is 3-A".
 Alpha  occ. eigenvalues --  -20.76962 -20.74967 -20.73973 -20.65055  -1.78692
 Alpha  occ. eigenvalues --   -1.69285  -1.24659  -1.07234  -0.87887  -0.87681
 Alpha  occ. eigenvalues --   -0.85437  -0.77104  -0.73127  -0.56239  -0.53825
 Alpha  occ. eigenvalues --   -0.52276  -0.42228
 Alpha virt. eigenvalues --    0.07277   0.43667   0.45798   0.64439   0.64976
 Alpha virt. eigenvalues --    0.67207   0.71048   0.73197   0.74051   0.80421
 Alpha virt. eigenvalues --    0.82877   0.83487   0.86117   0.87885   0.99504

 Mulliken charges and spin densities:
               1          2
     1  O   -0.156723   0.000251
     2  O    0.085051   0.027255
     3  O    0.052544   0.911651
     4  O    0.019127   1.060843
 Sum of Mulliken charges =  -0.00000   2.00000

 Dipole moment (field-independent basis, Debye):
    X=              0.9175    Y=              0.9291    Z=              0.0000  Tot=              1.3057
 Quadrupole moment (field-independent basis, Debye-Ang):
   XX=            -20.8015   YY=            -20.0662   ZZ=            -20.3070
   XY=             -0.7731   XZ=              0.0000   YZ=              0.0000

 Normal termination of Gaussian 16 at Tue Feb 13 13:06:53 2024.
