 Gaussian 16, Revision A.03,
 Gaussian 16:  ES64L-G16RevA.03 25-Dec-2016

 -----------------------------------------------
 #p ROCCSD(T,MaxCyc=200)/cc-pVTZ SCF(MaxCyc=200)
 -----------------------------------------------

 --------
 O2_O2_35
 --------
 Symbolic Z-matrix:
 Charge =  0 Multiplicity = 3

                         Standard orientation:
 ---------------------------------------------------------------------
 Center     Atomic      Atomic             Coordinates (Angstroms)
 Number     Number       Type             X           Y           Z
 ---------------------------------------------------------------------
      1          8           0       -0.870000   -1.010000    0.000000
      2          8           0        0.290000   -1.010000    0.000000
      3          8           0        0.290000    0.430000    0.000000
      4          8           0        0.290000    1.590000    0.000000
 ---------------------------------------------------------------------

 SCF Done:  E(ROHF) =  -299.013957363     A.U. after   25 cycles
 E2 =    -0.9490137593D+00 EUMP2 =    -0.29996297112207D+03
 CCSD(T)
 CCSD(T)= -0.29999522137D+03

 The electronic state is 3-A".
 Alpha  occ. eigenvalues --  -20.78097 -20.77746 -20.75940 -20.60851  -1.81793
 Alpha  occ. eigenvalues --   -1.69994  -1.27956  -1.07565  -0.90583  -0.90025
 Alpha  occ. eigenvalues --   -0.86474  -0.77340  -0.72628  -0.55447  -0.55116
 Alpha  occ. eigenvalues --   -0.50316  -0.41085
 Alpha virt. eigenvalues --    0.08162   0.43637   0.45462   0.62747   0.64308
 Alpha virt. eigenvalues --    0.66841   0.71021   0.72986   0.73455   0.81250
 Alpha virt. eigenvalues --    0.83512   0.84718   0.85711   0.88276   0.99564

 Mulliken charges and spin densities:
               1          2
     1  O   -0.269472   0.007772
     2  O    0.132579   0.045008
     3  O    0.124366   0.914493
     4  O    0.012526   1.032726
 Sum of Mulliken charges =  -0.00000   2.00000

 Dipole moment (field-independent basis, Debye):
    X=              1.4871    Y=              1.3022    Z=              0.0000  Tot=              1.9767
 Quadrupole moment (field-independent basis, Debye-Ang):
   XX=            -21.1872   YY=            -20.4025   ZZ=            -20.1949
   XY=             -1.1946   XZ=              0.0000   YZ=              0.0000

 Normal termination of Gaussian 16 at Tue Feb 13 12:50:51 2024.
