 Gaussian 16, Revision A.03,
 Gaussian 16:  ES64L-G16RevA.03 25-Dec-2016

 -----------------------------------------------
 #p ROCCSD(T,MaxCyc=200)/cc-pVTZ SCF(MaxCyc=200)
 -----------------------------------------------

 ---------
 O2_O2_128
 ---------
 Symbolic Z-matrix:
 Charge =  0 Multiplicity = 3

                         Standard orientation:
 ---------------------------------------------------------------------
 Center     Atomic      Atomic             Coordinates (Angstroms)
 Number     Number       Type             X           Y           Z
 ---------------------------------------------------------------------
      1          8           0       -0.870000   -1.630000    0.000000
      2          8           0        0.290000   -1.630000    0.000000
      3          8           0        0.290000    1.050000    0.000000
      4          8           0        0.290000    2.210000    0.000000
 ---------------------------------------------------------------------

 SCF Done:  E(ROHF) =  -299.088847445     A.U. after   21 cycles
 E2 =    -0.1122343477D+01 EUMP2 =    -0.30021119092160D+03
 CCSD(T)
 CCSD(T)= -0.30023554193D+03

 The electronic state is 3-A'.
 Alpha  occ. eigenvalues --  -20.76038 -20.75926 -20.75511 -20.74949  -1.73764
 Alpha  occ. eigenvalues --   -1.73244  -1.14195  -1.13577  -0.84691  -0.84125
 Alpha  occ. eigenvalues --   -0.78565  -0.77734  -0.74160  -0.73639  -0.51617
 Alpha  occ. eigenvalues --   -0.51001  -0.29900
 Alpha virt. eigenvalues --   -0.11468   0.41056   0.43756   0.64086   0.64991
 Alpha virt. eigenvalues --    0.68329   0.69654   0.72051   0.75568   0.76273
 Alpha virt. eigenvalues --    0.77954   0.78521   0.80626   0.83044   0.86863

 Mulliken charges and spin densities:
               1          2
     1  O   -0.004968   0.482829
     2  O    0.019425   0.517284
     3  O   -0.019560   0.409448
     4  O    0.005102   0.590439
 Sum of Mulliken charges =  -0.00000   2.00000

 Dipole moment (field-independent basis, Debye):
    X=              0.0173    Y=             -0.1058    Z=              0.0000  Tot=              0.1072
 Quadrupole moment (field-independent basis, Debye-Ang):
   XX=            -20.6752   YY=            -20.1287   ZZ=            -19.6933
   XY=              0.0792   XZ=              0.0000   YZ=              0.0000

 CCSD(T)=-300.2355419\RMSD=6.350e-09\PG=CS [SG(O4)]\\@
 Normal termination of Gaussian 16 at Tue Feb 13 16:07:49 2024.
