 Gaussian 16, Revision A.03,
 Gaussian 16:  ES64L-G16RevA.03 25-Dec-2016

 -----------------------------------------------
 #p ROCCSD(T,MaxCyc=200)/cc-pVTZ SCF(MaxCyc=200)
 -----------------------------------------------

 ---------
 O2_O2_161
 ---------
 Symbolic Z-matrix:
 Charge =  0 Multiplicity = 3

                         Standard orientation:
 ---------------------------------------------------------------------
 Center     Atomic      Atomic             Coordinates (Angstroms)
 Number     Number       Type             X           Y           Z
 ---------------------------------------------------------------------
      1          8           0       -0.870000   -1.850000    0.000000
      2          8           0        0.290000   -1.850000    0.000000
      3          8           0        0.290000    1.270000    0.000000
      4          8           0        0.290000    2.430000    0.000000
 ---------------------------------------------------------------------

 SCF Done:  E(ROHF) =  -299.252643161     A.U. after   28 cycles
 E2 =    -0.9215465164D+00 EUMP2 =    -0.30017418967776D+03
 CCSD(T)
 CCSD(T)= -0.30020092546D+03

 The electronic state is 3-A".
 Alpha  occ. eigenvalues --  -20.74436 -20.74249 -20.72838 -20.72720  -1.74867
 Alpha  occ. eigenvalues --   -1.69764  -1.17454  -1.08457  -0.84147  -0.84147
 Alpha  occ. eigenvalues --   -0.78602  -0.78544  -0.75068  -0.67246  -0.51354
 Alpha  occ. eigenvalues --   -0.51352  -0.44716
 Alpha virt. eigenvalues --    0.05042   0.39540   0.43593   0.62872   0.66781
 Alpha virt. eigenvalues --    0.67052   0.70613   0.72420   0.75372   0.76922
 Alpha virt. eigenvalues --    0.79914   0.80260   0.80776   0.82914   0.86655

 Mulliken charges and spin densities:
               1          2
     1  O   -0.000580   0.000053
     2  O    0.001281   0.000109
     3  O   -0.007611   0.993206
     4  O    0.006910   1.006632
 Sum of Mulliken charges =  -0.00000   2.00000

 Dipole moment (field-independent basis, Debye):
    X=              0.0096    Y=              0.0497    Z=              0.0000  Tot=              0.0506
 Quadrupole moment (field-independent basis, Debye-Ang):
   XX=            -20.3069   YY=            -19.3450   ZZ=            -20.5112
   XY=              0.0090   XZ=              0.0000   YZ=              0.0000

 CCSD(T)=-300.2009255\RMSD=1.238e-09\PG=CS [SG(O4)]\\@
 Normal termination of Gaussian 16 at Tue Feb 13 16:57:51 2024.
