 Gaussian 16, Revision A.03,
 Gaussian 16:  ES64L-G16RevA.03 25-Dec-2016

 -----------------------------------------------
 #p ROCCSD(T,MaxCyc=200)/cc-pVTZ SCF(MaxCyc=200)
 -----------------------------------------------

 ---------
 O2_O2_136
 ---------
 Symbolic Z-matrix:
 Charge =  0 Multiplicity = 3

                         Standard orientation:
 ---------------------------------------------------------------------
 Center     Atomic      Atomic             Coordinates (Angstroms)
 Number     Number       Type             X           Y           Z
 ---------------------------------------------------------------------
      1          8           0        0.615183   -2.305183    0.000000
      2          8           0       -0.205061   -1.484939    0.000000
      3          8           0       -0.205061    1.315061    0.000000
      4          8           0       -0.205061    2.475061    0.000000
 ---------------------------------------------------------------------

 SCF Done:  E(ROHF) =  -299.251943948     A.U. after   26 cycles
 E2 =    -0.9218818916D+00 EUMP2 =    -0.30017382583965D+03
 CCSD(T)
 CCSD(T)= -0.30020049375D+03

 The electronic state is 3-A".
 Alpha  occ. eigenvalues --  -20.74145 -20.74039 -20.72807 -20.72686  -1.74639
 Alpha  occ. eigenvalues --   -1.69754  -1.17238  -1.08443  -0.83919  -0.83917
 Alpha  occ. eigenvalues --   -0.78530  -0.78484  -0.74892  -0.67262  -0.51125
 Alpha  occ. eigenvalues --   -0.51117  -0.44686
 Alpha virt. eigenvalues --    0.05081   0.39924   0.46832   0.65773   0.66380
 Alpha virt. eigenvalues --    0.66799   0.70738   0.71345   0.76136   0.77399
 Alpha virt. eigenvalues --    0.78791   0.79340   0.85677   0.86159   0.87091

 Mulliken charges and spin densities:
               1          2
     1  O   -0.001673   0.000042
     2  O    0.001339   0.000219
     3  O   -0.000395   0.997489
     4  O    0.000729   1.002251
 Sum of Mulliken charges =  -0.00000   2.00000

 Dipole moment (field-independent basis, Debye):
    X=             -0.0171    Y=              0.0325    Z=              0.0000  Tot=              0.0367
 Quadrupole moment (field-independent basis, Debye-Ang):
   XX=            -19.5982   YY=            -20.2177   ZZ=            -20.5125
   XY=              0.7140   XZ=              0.0000   YZ=              0.0000

 3\CCSD=-300.1622975\CCSD(T)=-300.2004938\RMSD=3.595e-09\PG=CS [SG(O4)]
 Normal termination of Gaussian 16 at Tue Feb 13 16:25:24 2024.
