 Gaussian 16, Revision A.03,
 Gaussian 16:  ES64L-G16RevA.03 25-Dec-2016

 -----------------------------------------------
 #p ROCCSD(T,MaxCyc=200)/cc-pVTZ SCF(MaxCyc=200)
 -----------------------------------------------

 ---------
 O2_O2_211
 ---------
 Symbolic Z-matrix:
 Charge =  0 Multiplicity = 3

                         Standard orientation:
 ---------------------------------------------------------------------
 Center     Atomic      Atomic             Coordinates (Angstroms)
 Number     Number       Type             X           Y           Z
 ---------------------------------------------------------------------
      1          8           0        0.615183   -2.805183    0.000000
      2          8           0       -0.205061   -1.984939    0.000000
      3          8           0       -0.205061    1.815061   -0.000000
      4          8           0       -0.205061    2.975061   -0.000000
 ---------------------------------------------------------------------

 SCF Done:  E(ROHF) =  -299.252772378     A.U. after   27 cycles
 E2 =    -0.9208192599D+00 EUMP2 =    -0.30017359163837D+03
 CCSD(T)
 CCSD(T)= -0.30020044925D+03

 The electronic state is 3-A".
 Alpha  occ. eigenvalues --  -20.74007 -20.73929 -20.72935 -20.72819  -1.74503
 Alpha  occ. eigenvalues --   -1.69870  -1.17045  -1.08554  -0.83785  -0.83779
 Alpha  occ. eigenvalues --   -0.78646  -0.78127  -0.75170  -0.67398  -0.50979
 Alpha  occ. eigenvalues --   -0.50972  -0.44813
 Alpha virt. eigenvalues --    0.04962   0.38682   0.45132   0.66417   0.67973
 Alpha virt. eigenvalues --    0.69522   0.70498   0.70578   0.74304   0.77822
 Alpha virt. eigenvalues --    0.78689   0.79687   0.82413   0.84892   0.85650

 Mulliken charges and spin densities:
               1          2
     1  O   -0.000152   0.999479
     2  O    0.000311   1.000411
     3  O   -0.000287   0.000109
     4  O    0.000127   0.000001
 Sum of Mulliken charges =  -0.00000   2.00000

 Dipole moment (field-independent basis, Debye):
    X=             -0.0027    Y=             -0.0018    Z=             -0.0000  Tot=              0.0033
 Quadrupole moment (field-independent basis, Debye-Ang):
   XX=            -20.8138   YY=            -20.6293   ZZ=            -18.8841
   XY=              0.3037   XZ=             -0.0000   YZ=              0.0000

 CSD=-300.1623663\CCSD(T)=-300.2004493\RMSD=5.168e-09\PG=CS [SG(O4)]\\@
 Normal termination of Gaussian 16 at Tue Feb 13 17:57:51 2024.
