 Gaussian 16, Revision A.03,
 Gaussian 16:  ES64L-G16RevA.03 25-Dec-2016

 -----------------------------------------------
 #p ROCCSD(T,MaxCyc=200)/cc-pVTZ SCF(MaxCyc=200)
 -----------------------------------------------

 --------
 O2_O2_58
 --------
 Symbolic Z-matrix:
 Charge =  0 Multiplicity = 3

                         Standard orientation:
 ---------------------------------------------------------------------
 Center     Atomic      Atomic             Coordinates (Angstroms)
 Number     Number       Type             X           Y           Z
 ---------------------------------------------------------------------
      1          8           0        0.615183   -1.785183    0.000000
      2          8           0       -0.205061   -0.964939    0.000000
      3          8           0       -0.205061    0.795061   -0.000000
      4          8           0       -0.205061    1.955061   -0.000000
 ---------------------------------------------------------------------

 SCF Done:  E(ROHF) =  -299.076714538     A.U. after   21 cycles
 E2 =    -0.1057342300D+01 EUMP2 =    -0.30013405683783D+03
 CCSD(T)
 CCSD(T)= -0.30016272484D+03

 The electronic state is 3-A'.
 Alpha  occ. eigenvalues --  -20.77403 -20.74546 -20.73585 -20.73319  -1.74470
 Alpha  occ. eigenvalues --   -1.72531  -1.21036  -1.09348  -0.87106  -0.84182
 Alpha  occ. eigenvalues --   -0.81166  -0.76240  -0.72262  -0.69740  -0.51652
 Alpha  occ. eigenvalues --   -0.48842  -0.34054
 Alpha virt. eigenvalues --   -0.06407   0.44257   0.48464   0.64151   0.67208
 Alpha virt. eigenvalues --    0.70600   0.71511   0.73076   0.75136   0.76677
 Alpha virt. eigenvalues --    0.79135   0.81703   0.85434   0.95228   0.95537

 Mulliken charges and spin densities:
               1          2
     1  O   -0.038688   0.534538
     2  O    0.066794   0.454660
     3  O   -0.006175   0.334651
     4  O   -0.021932   0.676151
 Sum of Mulliken charges =   0.00000   2.00000

 Dipole moment (field-independent basis, Debye):
    X=             -0.1077    Y=             -0.0305    Z=             -0.0000  Tot=              0.1120
 Quadrupole moment (field-independent basis, Debye-Ang):
   XX=            -20.0898   YY=            -21.1811   ZZ=            -20.1499
   XY=              0.6004   XZ=             -0.0000   YZ=              0.0000

 CSD=-300.0782044\CCSD(T)=-300.1627248\RMSD=5.053e-09\PG=CS [SG(O4)]\\@
 Normal termination of Gaussian 16 at Tue Feb 13 13:32:29 2024.
