 Gaussian 16, Revision A.03,
 Gaussian 16:  ES64L-G16RevA.03 25-Dec-2016

 -----------------------------------------------
 #p ROCCSD(T,MaxCyc=200)/cc-pVTZ SCF(MaxCyc=200)
 -----------------------------------------------

 ---------
 O2_O2_116
 ---------
 Symbolic Z-matrix:
 Charge =  0 Multiplicity = 3

                         Standard orientation:
 ---------------------------------------------------------------------
 Center     Atomic      Atomic             Coordinates (Angstroms)
 Number     Number       Type             X           Y           Z
 ---------------------------------------------------------------------
      1          8           0       -0.870000   -1.550000    0.000000
      2          8           0        0.290000   -1.550000    0.000000
      3          8           0        0.290000    0.970000    0.000000
      4          8           0        0.290000    2.130000    0.000000
 ---------------------------------------------------------------------

 SCF Done:  E(ROHF) =  -299.095695439     A.U. after   20 cycles
 E2 =    -0.1107041409D+01 EUMP2 =    -0.30020273684819D+03
 CCSD(T)
 CCSD(T)= -0.30023083525D+03

 The electronic state is 3-A'.
 Alpha  occ. eigenvalues --  -20.76145 -20.76010 -20.75481 -20.74827  -1.73864
 Alpha  occ. eigenvalues --   -1.73187  -1.14362  -1.13496  -0.84806  -0.84054
 Alpha  occ. eigenvalues --   -0.78970  -0.77826  -0.74147  -0.73148  -0.51713
 Alpha  occ. eigenvalues --   -0.50926  -0.30580
 Alpha virt. eigenvalues --   -0.10719   0.41248   0.44575   0.63551   0.66396
 Alpha virt. eigenvalues --    0.68874   0.69895   0.71910   0.74747   0.76147
 Alpha virt. eigenvalues --    0.77694   0.78510   0.81831   0.83782   0.86865

 Mulliken charges and spin densities:
               1          2
     1  O   -0.006176   0.476392
     2  O    0.024284   0.523790
     3  O   -0.020430   0.397559
     4  O    0.002322   0.602259
 Sum of Mulliken charges =  -0.00000   2.00000

 Dipole moment (field-independent basis, Debye):
    X=              0.0291    Y=             -0.1242    Z=              0.0000  Tot=              0.1275
 Quadrupole moment (field-independent basis, Debye-Ang):
   XX=            -20.6790   YY=            -20.1318   ZZ=            -19.6914
   XY=              0.0977   XZ=              0.0000   YZ=              0.0000

 CCSD(T)=-300.2308352\RMSD=8.080e-09\PG=CS [SG(O4)]\\@
 Normal termination of Gaussian 16 at Tue Feb 13 15:39:34 2024.
