 Gaussian 16, Revision A.03,
 Gaussian 16:  ES64L-G16RevA.03 25-Dec-2016

 -----------------------------------------------
 #p ROCCSD(T,MaxCyc=200)/cc-pVTZ SCF(MaxCyc=200)
 -----------------------------------------------

 --------
 O2_O2_24
 --------
 Symbolic Z-matrix:
 Charge =  0 Multiplicity = 3

                         Standard orientation:
 ---------------------------------------------------------------------
 Center     Atomic      Atomic             Coordinates (Angstroms)
 Number     Number       Type             X           Y           Z
 ---------------------------------------------------------------------
      1          8           0        0.000000    0.000000    1.820000
      2          8           0        0.000000    0.000000    0.660000
      3          8           0        0.000000    0.000000   -0.660000
      4          8           0        0.000000    0.000000   -1.820000
 ---------------------------------------------------------------------

 SCF Done:  E(ROHF) =  -298.796033798     A.U. after   14 cycles
 E2 =    -0.1119445851D+01 EUMP2 =    -0.29991547964955D+03
 CCSD(T)
 CCSD(T)= -0.29987996230D+03

 Unable to determine electronic state:  an orbital has unidentified symmetry.
 Alpha  occ. eigenvalues --  -20.86634 -20.86615 -20.68302 -20.68302  -1.83983
 Alpha  occ. eigenvalues --   -1.73704  -1.44928  -1.03457  -0.94640  -0.87940
 Alpha  occ. eigenvalues --   -0.86643  -0.82044  -0.71769  -0.54899  -0.54162
 Alpha  occ. eigenvalues --   -0.45104  -0.39867
 Alpha virt. eigenvalues --   -0.03953   0.43511   0.49741   0.61686   0.62810
 Alpha virt. eigenvalues --    0.64519   0.69052   0.73072   0.74207   0.81912
 Alpha virt. eigenvalues --    0.82563   0.83833   0.90898   0.96579   0.98841

 Mulliken charges and spin densities:
               1          2
     1  O   -0.230890   0.291363
     2  O    0.230890   0.708637
     3  O    0.230890   0.708637
     4  O   -0.230890   0.291363
 Sum of Mulliken charges =  -0.00000   2.00000

 Dipole moment (field-independent basis, Debye):
    X=             -0.0000    Y=             -0.0000    Z=             -0.0000  Tot=              0.0000
 Quadrupole moment (field-independent basis, Debye-Ang):
   XX=            -20.1979   YY=            -19.6533   ZZ=            -26.6578
   XY=              0.0000   XZ=              0.0000   YZ=              0.0000

 PMP2-0=-299.9154796\MP4SDQ=-299.8127868\CCSD=-299.8069646\CCSD(T)=-299
 Normal termination of Gaussian 16 at Tue Feb 13 12:31:12 2024.
