 Gaussian 16, Revision A.03,
 Gaussian 16:  ES64L-G16RevA.03 25-Dec-2016

 -----------------------------------------------
 #p ROCCSD(T,MaxCyc=200)/cc-pVTZ SCF(MaxCyc=200)
 -----------------------------------------------

 ---------
 O2_O2_250
 ---------
 Symbolic Z-matrix:
 Charge =  0 Multiplicity = 3

                         Standard orientation:
 ---------------------------------------------------------------------
 Center     Atomic      Atomic             Coordinates (Angstroms)
 Number     Number       Type             X           Y           Z
 ---------------------------------------------------------------------
      1          8           0        0.615183   -3.065183    0.000000
      2          8           0       -0.205061   -2.244939   -0.000000
      3          8           0       -0.205061    2.075061   -0.000000
      4          8           0       -0.205061    3.235061   -0.000000
 ---------------------------------------------------------------------

 SCF Done:  E(ROHF) =  -299.252745782     A.U. after   25 cycles
 E2 =    -0.9206813309D+00 EUMP2 =    -0.30017342711326D+03
 CCSD(T)
 CCSD(T)= -0.30020030922D+03

 The electronic state is 3-A".
 Alpha  occ. eigenvalues --  -20.74013 -20.73936 -20.72943 -20.72827  -1.74511
 Alpha  occ. eigenvalues --   -1.69877  -1.17054  -1.08563  -0.83792  -0.83789
 Alpha  occ. eigenvalues --   -0.78654  -0.78135  -0.75183  -0.67406  -0.50987
 Alpha  occ. eigenvalues --   -0.50984  -0.44822
 Alpha virt. eigenvalues --    0.04954   0.40473   0.44012   0.67820   0.68009
 Alpha virt. eigenvalues --    0.70393   0.70563   0.70936   0.73365   0.77825
 Alpha virt. eigenvalues --    0.79044   0.79785   0.81808   0.82226   0.84727

 Mulliken charges and spin densities:
               1          2
     1  O   -0.000341   0.999575
     2  O    0.000377   1.000401
     3  O    0.000115   0.000024
     4  O   -0.000151  -0.000000
 Sum of Mulliken charges =  -0.00000   2.00000

 Dipole moment (field-independent basis, Debye):
    X=             -0.0020    Y=              0.0002    Z=             -0.0000  Tot=              0.0021
 Quadrupole moment (field-independent basis, Debye-Ang):
   XX=            -20.8139   YY=            -20.6270   ZZ=            -18.8838
   XY=              0.3031   XZ=              0.0000   YZ=              0.0000

 6\CCSD=-300.1622417\CCSD(T)=-300.2003092\RMSD=3.829e-09\PG=CS [SG(O4)]
 Normal termination of Gaussian 16 at Tue Feb 13 18:44:23 2024.
