 Gaussian 16, Revision A.03,
 Gaussian 16:  ES64L-G16RevA.03 25-Dec-2016

 -----------------------------------------------
 #p ROCCSD(T,MaxCyc=200)/cc-pVTZ SCF(MaxCyc=200)
 -----------------------------------------------

 --------
 O2_O2_99
 --------
 Symbolic Z-matrix:
 Charge =  0 Multiplicity = 3

                         Standard orientation:
 ---------------------------------------------------------------------
 Center     Atomic      Atomic             Coordinates (Angstroms)
 Number     Number       Type             X           Y           Z
 ---------------------------------------------------------------------
      1          8           0        0.000000    0.000000    2.320000
      2          8           0        0.000000    0.000000    1.160000
      3          8           0        0.000000    0.000000   -1.160000
      4          8           0        0.000000    0.000000   -2.320000
 ---------------------------------------------------------------------

 SCF Done:  E(ROHF) =  -299.089331744     A.U. after   16 cycles
 E2 =    -0.1113499480D+01 EUMP2 =    -0.30020283122388D+03
 CCSD(T)
 CCSD(T)= -0.30022970434D+03

 Unable to determine electronic state:  an orbital has unidentified symmetry.
 Alpha  occ. eigenvalues --  -20.75764 -20.75762 -20.75029 -20.75029  -1.73574
 Alpha  occ. eigenvalues --   -1.73293  -1.15402  -1.12267  -0.84591  -0.84071
 Alpha  occ. eigenvalues --   -0.80119  -0.74954  -0.74949  -0.73445  -0.51940
 Alpha  occ. eigenvalues --   -0.50397  -0.30051
 Alpha virt. eigenvalues --   -0.10867   0.42784   0.48497   0.64252   0.66834
 Alpha virt. eigenvalues --    0.69276   0.70397   0.71871   0.74792   0.75974
 Alpha virt. eigenvalues --    0.78394   0.84572   0.85065   0.86722   0.91166

 Mulliken charges and spin densities:
               1          2
     1  O   -0.008832   0.594553
     2  O    0.008832   0.405447
     3  O    0.008832   0.405447
     4  O   -0.008832   0.594553
 Sum of Mulliken charges =  -0.00000   2.00000

 Dipole moment (field-independent basis, Debye):
    X=              0.0000    Y=             -0.0000    Z=              0.0000  Tot=              0.0000
 Quadrupole moment (field-independent basis, Debye-Ang):
   XX=            -19.6838   YY=            -20.1991   ZZ=            -20.5300
   XY=              0.0000   XZ=              0.0000   YZ=              0.0000

 PMP2-0=-300.2028312\MP4SDQ=-300.1227534\CCSD=-300.1150342\CCSD(T)=-300
 Normal termination of Gaussian 16 at Tue Feb 13 14:58:33 2024.
