 Gaussian 16, Revision A.03,
 Gaussian 16:  ES64L-G16RevA.03 25-Dec-2016

 -----------------------------------------------
 #p ROCCSD(T,MaxCyc=200)/cc-pVTZ SCF(MaxCyc=200)
 -----------------------------------------------

 ---------
 O2_O2_208
 ---------
 Symbolic Z-matrix:
 Charge =  0 Multiplicity = 3

                         Standard orientation:
 ---------------------------------------------------------------------
 Center     Atomic      Atomic             Coordinates (Angstroms)
 Number     Number       Type             X           Y           Z
 ---------------------------------------------------------------------
      1          8           0        0.615183   -2.785183    0.000000
      2          8           0       -0.205061   -1.964939    0.000000
      3          8           0       -0.205061    1.795061   -0.000000
      4          8           0       -0.205061    2.955061   -0.000000
 ---------------------------------------------------------------------

 SCF Done:  E(ROHF) =  -299.252772570     A.U. after   28 cycles
 E2 =    -0.9208358858D+00 EUMP2 =    -0.30017360845609D+03
 CCSD(T)
 CCSD(T)= -0.30020046353D+03

 The electronic state is 3-A".
 Alpha  occ. eigenvalues --  -20.74006 -20.73928 -20.72934 -20.72818  -1.74502
 Alpha  occ. eigenvalues --   -1.69869  -1.17044  -1.08553  -0.83784  -0.83778
 Alpha  occ. eigenvalues --   -0.78645  -0.78126  -0.75169  -0.67397  -0.50978
 Alpha  occ. eigenvalues --   -0.50970  -0.44812
 Alpha virt. eigenvalues --    0.04962   0.38545   0.45216   0.66237   0.67965
 Alpha virt. eigenvalues --    0.69456   0.70511   0.70581   0.74365   0.77849
 Alpha virt. eigenvalues --    0.78660   0.79666   0.82449   0.84926   0.85846

 Mulliken charges and spin densities:
               1          2
     1  O   -0.000131   0.999462
     2  O    0.000304   1.000418
     3  O   -0.000345   0.000118
     4  O    0.000172   0.000002
 Sum of Mulliken charges =  -0.00000   2.00000

 Dipole moment (field-independent basis, Debye):
    X=             -0.0028    Y=             -0.0020    Z=             -0.0000  Tot=              0.0034
 Quadrupole moment (field-independent basis, Debye-Ang):
   XX=            -20.8139   YY=            -20.6298   ZZ=            -18.8841
   XY=              0.3039   XZ=             -0.0000   YZ=              0.0000

 3\CCSD=-300.1623786\CCSD(T)=-300.2004635\RMSD=1.609e-09\PG=CS [SG(O4)]
 Normal termination of Gaussian 16 at Tue Feb 13 17:54:15 2024.
