 Gaussian 16, Revision A.03,
 Gaussian 16:  ES64L-G16RevA.03 25-Dec-2016

 -----------------------------------------------
 #p ROCCSD(T,MaxCyc=200)/cc-pVTZ SCF(MaxCyc=200)
 -----------------------------------------------

 --------
 O2_O2_87
 --------
 Symbolic Z-matrix:
 Charge =  0 Multiplicity = 3

                         Standard orientation:
 ---------------------------------------------------------------------
 Center     Atomic      Atomic             Coordinates (Angstroms)
 Number     Number       Type             X           Y           Z
 ---------------------------------------------------------------------
      1          8           0        0.000000    0.000000    2.240000
      2          8           0        0.000000    0.000000    1.080000
      3          8           0        0.000000    0.000000   -1.080000
      4          8           0        0.000000    0.000000   -2.240000
 ---------------------------------------------------------------------

 SCF Done:  E(ROHF) =  -299.068261650     A.U. after   13 cycles
 E2 =    -0.1098972577D+01 EUMP2 =    -0.30016723422625D+03
 CCSD(T)
 CCSD(T)= -0.30017484041D+03

 Unable to determine electronic state:  an orbital has unidentified symmetry.
 Alpha  occ. eigenvalues --  -20.77023 -20.77022 -20.74199 -20.74199  -1.73809
 Alpha  occ. eigenvalues --   -1.73336  -1.16559  -1.11722  -0.82873  -0.81933
 Alpha  occ. eigenvalues --   -0.81120  -0.77199  -0.75220  -0.74169  -0.49563
 Alpha  occ. eigenvalues --   -0.47572  -0.32541
 Alpha virt. eigenvalues --   -0.12719   0.43614   0.48692   0.64525   0.65069
 Alpha virt. eigenvalues --    0.71072   0.71166   0.71565   0.76270   0.76605
 Alpha virt. eigenvalues --    0.77647   0.84574   0.85592   0.87726   0.93387

 Mulliken charges and spin densities:
               1          2
     1  O   -0.048536   0.466080
     2  O    0.048536   0.533920
     3  O    0.048536   0.533920
     4  O   -0.048536   0.466080
 Sum of Mulliken charges =  -0.00000   2.00000

 Dipole moment (field-independent basis, Debye):
    X=             -0.0000    Y=             -0.0000    Z=              0.0000  Tot=              0.0000
 Quadrupole moment (field-independent basis, Debye-Ang):
   XX=            -20.7571   YY=            -19.1566   ZZ=            -21.7570
   XY=              0.0000   XZ=              0.0000   YZ=              0.0000

 PMP2-0=-300.1672342\MP4SDQ=-300.081957\CCSD=-300.0789636\CCSD(T)=-300.
 Normal termination of Gaussian 16 at Tue Feb 13 14:32:42 2024.
