 Gaussian 16, Revision A.03,
 Gaussian 16:  ES64L-G16RevA.03 25-Dec-2016

 -----------------------------------------------
 #p ROCCSD(T,MaxCyc=200)/cc-pVTZ SCF(MaxCyc=200)
 -----------------------------------------------

 ---------
 O2_O2_293
 ---------
 Symbolic Z-matrix:
 Charge =  0 Multiplicity = 3

                         Standard orientation:
 ---------------------------------------------------------------------
 Center     Atomic      Atomic             Coordinates (Angstroms)
 Number     Number       Type             X           Y           Z
 ---------------------------------------------------------------------
      1          8           0       -0.870000   -2.730000    0.000000
      2          8           0        0.290000   -2.730000    0.000000
      3          8           0        0.290000    2.150000    0.000000
      4          8           0        0.290000    3.310000    0.000000
 ---------------------------------------------------------------------

 SCF Done:  E(ROHF) =  -299.252731714     A.U. after   34 cycles
 E2 =    -0.9206268921D+00 EUMP2 =    -0.30017335860587D+03
 CCSD(T)
 CCSD(T)= -0.30020025508D+03

 The electronic state is 3-A".
 Alpha  occ. eigenvalues --  -20.74012 -20.73936 -20.72983 -20.72867  -1.74512
 Alpha  occ. eigenvalues --   -1.69916  -1.17056  -1.08605  -0.83792  -0.83790
 Alpha  occ. eigenvalues --   -0.78693  -0.78137  -0.75227  -0.67445  -0.50987
 Alpha  occ. eigenvalues --   -0.50986  -0.44862
 Alpha virt. eigenvalues --    0.04913   0.41434   0.43225   0.67969   0.68011
 Alpha virt. eigenvalues --    0.70367   0.70526   0.72064   0.72546   0.78014
 Alpha virt. eigenvalues --    0.79655   0.79793   0.80055   0.82175   0.84675

 Mulliken charges and spin densities:
               1          2
     1  O    0.000034   1.000034
     2  O   -0.000029   0.999966
     3  O   -0.000232   0.000001
     4  O    0.000227  -0.000000
 Sum of Mulliken charges =  -0.00000   2.00000

 Dipole moment (field-independent basis, Debye):
    X=              0.0001    Y=              0.0031    Z=              0.0000  Tot=              0.0031
 Quadrupole moment (field-independent basis, Debye-Ang):
   XX=            -21.1131   YY=            -20.3019   ZZ=            -18.8835
   XY=              0.0010   XZ=              0.0000   YZ=              0.0000

 Normal termination of Gaussian 16 at Tue Feb 13 19:27:47 2024.
