 Gaussian 16, Revision A.03,
 Gaussian 16:  ES64L-G16RevA.03 25-Dec-2016

 -----------------------------------------------
 #p ROCCSD(T,MaxCyc=200)/cc-pVTZ SCF(MaxCyc=200)
 -----------------------------------------------

 ---------
 O2_O2_215
 ---------
 Symbolic Z-matrix:
 Charge =  0 Multiplicity = 3

                         Standard orientation:
 ---------------------------------------------------------------------
 Center     Atomic      Atomic             Coordinates (Angstroms)
 Number     Number       Type             X           Y           Z
 ---------------------------------------------------------------------
      1          8           0       -0.870000   -2.210000    0.000000
      2          8           0        0.290000   -2.210000    0.000000
      3          8           0        0.290000    1.630000    0.000000
      4          8           0        0.290000    2.790000    0.000000
 ---------------------------------------------------------------------

 SCF Done:  E(ROHF) =  -299.252852446     A.U. after   61 cycles
 E2 =    -0.9208009248D+00 EUMP2 =    -0.30017365337088D+03
 CCSD(T)
 CCSD(T)= -0.30020051482D+03

 The electronic state is 3-A".
 Alpha  occ. eigenvalues --  -20.74269 -20.74155 -20.72901 -20.72785  -1.74740
 Alpha  occ. eigenvalues --   -1.69830  -1.17299  -1.08518  -0.84021  -0.84021
 Alpha  occ. eigenvalues --   -0.78608  -0.78391  -0.75141  -0.67349  -0.51222
 Alpha  occ. eigenvalues --   -0.51221  -0.44778
 Alpha virt. eigenvalues --    0.04996   0.40306   0.43399   0.66086   0.67750
 Alpha virt. eigenvalues --    0.67778   0.70456   0.72575   0.74585   0.78396
 Alpha virt. eigenvalues --    0.79598   0.80007   0.80229   0.82290   0.85854

 Mulliken charges and spin densities:
               1          2
     1  O   -0.000187   0.000006
     2  O    0.000496   0.000007
     3  O   -0.003657   0.996485
     4  O    0.003347   1.003503
 Sum of Mulliken charges =  -0.00000   2.00000

 Dipole moment (field-independent basis, Debye):
    X=              0.0031    Y=              0.0231    Z=              0.0000  Tot=              0.0233
 Quadrupole moment (field-independent basis, Debye-Ang):
   XX=            -20.3053   YY=            -19.3779   ZZ=            -20.5127
   XY=              0.0074   XZ=              0.0000   YZ=              0.0000

 Normal termination of Gaussian 16 at Tue Feb 13 18:03:58 2024.
