 Gaussian 16, Revision A.03,
 Gaussian 16:  ES64L-G16RevA.03 25-Dec-2016

 -----------------------------------------------
 #p ROCCSD(T,MaxCyc=200)/cc-pVTZ SCF(MaxCyc=200)
 -----------------------------------------------

 --------
 O2_O2_22
 --------
 Symbolic Z-matrix:
 Charge =  0 Multiplicity = 3

                         Standard orientation:
 ---------------------------------------------------------------------
 Center     Atomic      Atomic             Coordinates (Angstroms)
 Number     Number       Type             X           Y           Z
 ---------------------------------------------------------------------
      1          8           0        0.615183   -1.545183    0.000000
      2          8           0       -0.205061   -0.724939    0.000000
      3          8           0       -0.205061    0.555061   -0.000000
      4          8           0       -0.205061    1.715061   -0.000000
 ---------------------------------------------------------------------

 SCF Done:  E(ROHF) =  -298.961222624     A.U. after   28 cycles
 E2 =    -0.9184199983D+00 EUMP2 =    -0.29987964262249D+03
 CCSD(T)
 CCSD(T)= -0.29993877088D+03

 The electronic state is 3-A".
 Alpha  occ. eigenvalues --  -20.85788 -20.71504 -20.69042 -20.68897  -1.82429
 Alpha  occ. eigenvalues --   -1.69194  -1.39217  -1.03080  -0.92333  -0.87697
 Alpha  occ. eigenvalues --   -0.86277  -0.76972  -0.76487  -0.56514  -0.55189
 Alpha  occ. eigenvalues --   -0.47549  -0.40337
 Alpha virt. eigenvalues --    0.10992   0.45081   0.52236   0.64454   0.64875
 Alpha virt. eigenvalues --    0.65536   0.68878   0.73540   0.74917   0.78440
 Alpha virt. eigenvalues --    0.81773   0.84236   0.85363   0.93689   0.98095

 Mulliken charges and spin densities:
               1          2
     1  O   -0.099538   0.613044
     2  O    0.235179   0.324034
     3  O   -0.046138   0.303589
     4  O   -0.089502   0.759334
 Sum of Mulliken charges =   0.00000   2.00000

 Dipole moment (field-independent basis, Debye):
    X=              0.0152    Y=             -0.7351    Z=              0.0000  Tot=              0.7353
 Quadrupole moment (field-independent basis, Debye-Ang):
   XX=            -20.1167   YY=            -23.0949   ZZ=            -19.8958
   XY=              0.8440   XZ=             -0.0000   YZ=              0.0000

 \CCSD=-299.8908818\CCSD(T)=-299.9387709\RMSD=9.034e-10\PG=CS [SG(O4)]\
 Normal termination of Gaussian 16 at Tue Feb 13 12:27:48 2024.
