 Gaussian 16, Revision A.03,
 Gaussian 16:  ES64L-G16RevA.03 25-Dec-2016

 -----------------------------------------------
 #p ROCCSD(T,MaxCyc=200)/cc-pVTZ SCF(MaxCyc=200)
 -----------------------------------------------

 ---------
 O2_O2_187
 ---------
 Symbolic Z-matrix:
 Charge =  0 Multiplicity = 3

                         Standard orientation:
 ---------------------------------------------------------------------
 Center     Atomic      Atomic             Coordinates (Angstroms)
 Number     Number       Type             X           Y           Z
 ---------------------------------------------------------------------
      1          8           0        0.615183   -2.645183    0.000000
      2          8           0       -0.205061   -1.824939   -0.000000
      3          8           0       -0.205061    1.655062   -0.000000
      4          8           0       -0.205061    2.815060   -0.000000
 ---------------------------------------------------------------------

 SCF Done:  E(ROHF) =  -299.252747068     A.U. after   25 cycles
 E2 =    -0.9209865625D+00 EUMP2 =    -0.30017373363049D+03
 CCSD(T)
 CCSD(T)= -0.30020056810D+03

 The electronic state is 3-A".
 Alpha  occ. eigenvalues --  -20.73996 -20.73918 -20.72927 -20.72811  -1.74492
 Alpha  occ. eigenvalues --   -1.69863  -1.17034  -1.08546  -0.83774  -0.83769
 Alpha  occ. eigenvalues --   -0.78639  -0.78122  -0.75154  -0.67391  -0.50968
 Alpha  occ. eigenvalues --   -0.50958  -0.44805
 Alpha virt. eigenvalues --    0.04968   0.37879   0.45744   0.65055   0.67843
 Alpha virt. eigenvalues --    0.69045   0.70618   0.70672   0.74720   0.78108
 Alpha virt. eigenvalues --    0.78445   0.79420   0.82882   0.85347   0.86245

 Mulliken charges and spin densities:
               1          2
     1  O   -0.000060   0.999259
     2  O    0.000301   1.000555
     3  O   -0.000755   0.000174
     4  O    0.000514   0.000012
 Sum of Mulliken charges =  -0.00000   2.00000

 Dipole moment (field-independent basis, Debye):
    X=             -0.0038    Y=             -0.0023    Z=              0.0000  Tot=              0.0044
 Quadrupole moment (field-independent basis, Debye-Ang):
   XX=            -20.8141   YY=            -20.6382   ZZ=            -18.8842
   XY=              0.3054   XZ=             -0.0000   YZ=             -0.0000

 8\CCSD=-300.1624651\CCSD(T)=-300.2005681\RMSD=3.441e-09\PG=CS [SG(O4)]
 Normal termination of Gaussian 16 at Tue Feb 13 17:29:11 2024.
