 Gaussian 16, Revision A.03,
 Gaussian 16:  ES64L-G16RevA.03 25-Dec-2016

 -----------------------------------------------
 #p ROCCSD(T,MaxCyc=200)/cc-pVTZ SCF(MaxCyc=200)
 -----------------------------------------------

 --------
 O2_O2_74
 --------
 Symbolic Z-matrix:
 Charge =  0 Multiplicity = 3

                         Standard orientation:
 ---------------------------------------------------------------------
 Center     Atomic      Atomic             Coordinates (Angstroms)
 Number     Number       Type             X           Y           Z
 ---------------------------------------------------------------------
      1          8           0       -0.870000   -1.270000    0.000000
      2          8           0        0.290000   -1.270000    0.000000
      3          8           0        0.290000    0.690000    0.000000
      4          8           0        0.290000    1.850000    0.000000
 ---------------------------------------------------------------------

 SCF Done:  E(ROHF) =  -299.104455877     A.U. after   20 cycles
 E2 =    -0.1055813111D+01 EUMP2 =    -0.30016026898762D+03
 CCSD(T)
 CCSD(T)= -0.30019041444D+03

 The electronic state is 3-A'.
 Alpha  occ. eigenvalues --  -20.76437 -20.75956 -20.74359 -20.73543  -1.74657
 Alpha  occ. eigenvalues --   -1.72297  -1.16252  -1.12503  -0.85583  -0.83101
 Alpha  occ. eigenvalues --   -0.82097  -0.78292  -0.73834  -0.68360  -0.52308
 Alpha  occ. eigenvalues --   -0.49957  -0.33882
 Alpha virt. eigenvalues --   -0.06715   0.41408   0.47131   0.63504   0.68533
 Alpha virt. eigenvalues --    0.69710   0.70960   0.70978   0.75142   0.77055
 Alpha virt. eigenvalues --    0.78595   0.80046   0.85720   0.87455   0.91783

 Mulliken charges and spin densities:
               1          2
     1  O   -0.004632   0.473966
     2  O    0.047038   0.527003
     3  O   -0.025227   0.339656
     4  O   -0.017180   0.659375
 Sum of Mulliken charges =  -0.00000   2.00000

 Dipole moment (field-independent basis, Debye):
    X=              0.0857    Y=             -0.2650    Z=              0.0000  Tot=              0.2785
 Quadrupole moment (field-independent basis, Debye-Ang):
   XX=            -20.5532   YY=            -20.5293   ZZ=            -19.6407
   XY=              0.1651   XZ=              0.0000   YZ=              0.0000

 Normal termination of Gaussian 16 at Tue Feb 13 14:07:03 2024.
