 Gaussian 16, Revision A.03,
 Gaussian 16:  ES64L-G16RevA.03 25-Dec-2016

 -----------------------------------------------
 #p ROCCSD(T,MaxCyc=200)/cc-pVTZ SCF(MaxCyc=200)
 -----------------------------------------------

 ---------
 O2_O2_111
 ---------
 Symbolic Z-matrix:
 Charge =  0 Multiplicity = 3

                         Standard orientation:
 ---------------------------------------------------------------------
 Center     Atomic      Atomic             Coordinates (Angstroms)
 Number     Number       Type             X           Y           Z
 ---------------------------------------------------------------------
      1          8           0        0.000000    0.000000    2.400000
      2          8           0        0.000000    0.000000    1.240000
      3          8           0        0.000000    0.000000   -1.240000
      4          8           0        0.000000    0.000000   -2.400000
 ---------------------------------------------------------------------

 SCF Done:  E(ROHF) =  -299.083005302     A.U. after   16 cycles
 E2 =    -0.1132041177D+01 EUMP2 =    -0.30021504647948D+03
 CCSD(T)
 CCSD(T)= -0.30023607039D+03

 Unable to determine electronic state:  an orbital has unidentified symmetry.
 Alpha  occ. eigenvalues --  -20.75731 -20.75729 -20.75106 -20.75105  -1.73504
 Alpha  occ. eigenvalues --   -1.73323  -1.14845  -1.12695  -0.84486  -0.84134
 Alpha  occ. eigenvalues --   -0.79438  -0.75751  -0.74806  -0.73588  -0.51714
 Alpha  occ. eigenvalues --   -0.50623  -0.29348
 Alpha virt. eigenvalues --   -0.11711   0.41697   0.48454   0.64526   0.67038
 Alpha virt. eigenvalues --    0.68954   0.69144   0.71694   0.74853   0.75768
 Alpha virt. eigenvalues --    0.78383   0.82251   0.85353   0.86766   0.89474

 Mulliken charges and spin densities:
               1          2
     1  O   -0.003966   0.582119
     2  O    0.003966   0.417881
     3  O    0.003966   0.417881
     4  O   -0.003966   0.582119
 Sum of Mulliken charges =  -0.00000   2.00000

 Dipole moment (field-independent basis, Debye):
    X=              0.0000    Y=             -0.0000    Z=              0.0000  Tot=              0.0000
 Quadrupole moment (field-independent basis, Debye-Ang):
   XX=            -19.6883   YY=            -20.1781   ZZ=            -20.5454
   XY=              0.0000   XZ=              0.0000   YZ=              0.0000

 \PMP2-0=-300.2150465\MP4SDQ=-300.1181225\CCSD=-300.11459\CCSD(T)=-300.
 Normal termination of Gaussian 16 at Tue Feb 13 15:27:08 2024.
