 Gaussian 16, Revision A.03,
 Gaussian 16:  ES64L-G16RevA.03 25-Dec-2016

 -----------------------------------------------
 #p ROCCSD(T,MaxCyc=200)/cc-pVTZ SCF(MaxCyc=200)
 -----------------------------------------------

 ---------
 O2_O2_154
 ---------
 Symbolic Z-matrix:
 Charge =  0 Multiplicity = 3

                         Standard orientation:
 ---------------------------------------------------------------------
 Center     Atomic      Atomic             Coordinates (Angstroms)
 Number     Number       Type             X           Y           Z
 ---------------------------------------------------------------------
      1          8           0        0.615183   -2.425183    0.000000
      2          8           0       -0.205061   -1.604939    0.000000
      3          8           0       -0.205061    1.435062   -0.000000
      4          8           0       -0.205061    2.595060   -0.000000
 ---------------------------------------------------------------------

 SCF Done:  E(ROHF) =  -299.252412176     A.U. after   26 cycles
 E2 =    -0.9214166729D+00 EUMP2 =    -0.30017382884900D+03
 CCSD(T)
 CCSD(T)= -0.30020061204D+03

 The electronic state is 3-A".
 Alpha  occ. eigenvalues --  -20.73951 -20.73870 -20.72905 -20.72789  -1.74455
 Alpha  occ. eigenvalues --   -1.69849  -1.17009  -1.08536  -0.83749  -0.83737
 Alpha  occ. eigenvalues --   -0.78624  -0.78140  -0.75079  -0.67377  -0.50930
 Alpha  occ. eigenvalues --   -0.50919  -0.44787
 Alpha virt. eigenvalues --    0.04976   0.38604   0.46414   0.64554   0.67218
 Alpha virt. eigenvalues --    0.68104   0.70810   0.71268   0.75102   0.77866
 Alpha virt. eigenvalues --    0.78658   0.79102   0.84225   0.86108   0.87042

 Mulliken charges and spin densities:
               1          2
     1  O   -0.000666   0.998531
     2  O    0.000817   1.001265
     3  O   -0.000176   0.000120
     4  O    0.000025   0.000083
 Sum of Mulliken charges =  -0.00000   2.00000

 Dipole moment (field-independent basis, Debye):
    X=             -0.0072    Y=              0.0026    Z=             -0.0000  Tot=              0.0076
 Quadrupole moment (field-independent basis, Debye-Ang):
   XX=            -20.8162   YY=            -20.6764   ZZ=            -18.8847
   XY=              0.3107   XZ=             -0.0000   YZ=              0.0000

 1\CCSD=-300.1624568\CCSD(T)=-300.200612\RMSD=7.041e-09\PG=CS [SG(O4)]\
 Normal termination of Gaussian 16 at Tue Feb 13 16:49:03 2024.
