 Gaussian 16, Revision A.03,
 Gaussian 16:  ES64L-G16RevA.03 25-Dec-2016

 -----------------------------------------------
 #p ROCCSD(T,MaxCyc=200)/cc-pVTZ SCF(MaxCyc=200)
 -----------------------------------------------

 ---------
 O2_O2_135
 ---------
 Symbolic Z-matrix:
 Charge =  0 Multiplicity = 3

                         Standard orientation:
 ---------------------------------------------------------------------
 Center     Atomic      Atomic             Coordinates (Angstroms)
 Number     Number       Type             X           Y           Z
 ---------------------------------------------------------------------
      1          8           0        0.000000    0.000000    2.560000
      2          8           0        0.000000    0.000000    1.400000
      3          8           0        0.000000    0.000000   -1.400000
      4          8           0        0.000000    0.000000   -2.560000
 ---------------------------------------------------------------------

 SCF Done:  E(ROHF) =  -299.046633669     A.U. after   15 cycles
 E2 =    -0.1153764084D+01 EUMP2 =    -0.30020039775292D+03
 CCSD(T)
 CCSD(T)= -0.30019237890D+03

 Unable to determine electronic state:  an orbital has unidentified symmetry.
 Alpha  occ. eigenvalues --  -20.76336 -20.76335 -20.74703 -20.74703  -1.73434
 Alpha  occ. eigenvalues --   -1.73354  -1.14292  -1.13234  -0.82335  -0.82145
 Alpha  occ. eigenvalues --   -0.78654  -0.76828  -0.76535  -0.75727  -0.48742
 Alpha  occ. eigenvalues --   -0.48294  -0.30152
 Alpha virt. eigenvalues --   -0.15337   0.38962   0.48405   0.66183   0.66248
 Alpha virt. eigenvalues --    0.66520   0.70218   0.70308   0.75677   0.76848
 Alpha virt. eigenvalues --    0.77926   0.79412   0.85754   0.86837   0.87159

 Mulliken charges and spin densities:
               1          2
     1  O   -0.019325   0.477422
     2  O    0.019325   0.522578
     3  O    0.019325   0.522578
     4  O   -0.019325   0.477422
 Sum of Mulliken charges =   0.00000   2.00000

 Dipole moment (field-independent basis, Debye):
    X=             -0.0000    Y=             -0.0000    Z=              0.0000  Tot=              0.0000
 Quadrupole moment (field-independent basis, Debye-Ang):
   XX=            -20.7276   YY=            -19.1183   ZZ=            -21.5347
   XY=              0.0000   XZ=              0.0000   YZ=              0.0000

 PMP2-0=-300.2003978\MP4SDQ=-300.0510277\CCSD=-300.073469\CCSD(T)=-300.
 Normal termination of Gaussian 16 at Tue Feb 13 16:23:42 2024.
