 Gaussian 16, Revision A.03,
 Gaussian 16:  ES64L-G16RevA.03 25-Dec-2016

 -----------------------------------------------
 #p ROCCSD(T,MaxCyc=200)/cc-pVTZ SCF(MaxCyc=200)
 -----------------------------------------------

 ---------
 O2_O2_127
 ---------
 Symbolic Z-matrix:
 Charge =  0 Multiplicity = 3

                         Standard orientation:
 ---------------------------------------------------------------------
 Center     Atomic      Atomic             Coordinates (Angstroms)
 Number     Number       Type             X           Y           Z
 ---------------------------------------------------------------------
      1          8           0        0.615183   -2.245183   -0.000000
      2          8           0       -0.205061   -1.424939   -0.000000
      3          8           0       -0.205061    1.255061    0.000000
      4          8           0       -0.205061    2.415061    0.000000
 ---------------------------------------------------------------------

 SCF Done:  E(ROHF) =  -299.075501906     A.U. after   20 cycles
 E2 =    -0.1152028812D+01 EUMP2 =    -0.30022753071713D+03
 CCSD(T)
 CCSD(T)= -0.30024100134D+03

 The electronic state is 3-A'.
 Alpha  occ. eigenvalues --  -20.75729 -20.75506 -20.75175 -20.75048  -1.73434
 Alpha  occ. eigenvalues --   -1.73267  -1.14361  -1.13085  -0.84421  -0.84151
 Alpha  occ. eigenvalues --   -0.78588  -0.76607  -0.74615  -0.73726  -0.51320
 Alpha  occ. eigenvalues --   -0.50923  -0.28724
 Alpha virt. eigenvalues --   -0.12489   0.40408   0.46365   0.64598   0.66930
 Alpha virt. eigenvalues --    0.67399   0.70335   0.71600   0.74488   0.77373
 Alpha virt. eigenvalues --    0.78789   0.79112   0.83857   0.85875   0.87337

 Mulliken charges and spin densities:
               1          2
     1  O    0.007024   0.558716
     2  O   -0.003140   0.441399
     3  O   -0.006418   0.428960
     4  O    0.002534   0.570926
 Sum of Mulliken charges =  -0.00000   2.00000

 Dipole moment (field-independent basis, Debye):
    X=              0.0308    Y=             -0.0309    Z=              0.0000  Tot=              0.0436
 Quadrupole moment (field-independent basis, Debye-Ang):
   XX=            -20.0399   YY=            -20.3611   ZZ=            -20.1403
   XY=              0.2946   XZ=             -0.0000   YZ=             -0.0000

 CCSD=-300.1128172\CCSD(T)=-300.2410013\RMSD=5.523e-09\PG=CS [SG(O4)]\\
 Normal termination of Gaussian 16 at Tue Feb 13 16:04:39 2024.
