 Gaussian 16, Revision A.03,
 Gaussian 16:  ES64L-G16RevA.03 25-Dec-2016

 -----------------------------------------------
 #p ROCCSD(T,MaxCyc=200)/cc-pVTZ SCF(MaxCyc=200)
 -----------------------------------------------

 ---------
 O2_O2_274
 ---------
 Symbolic Z-matrix:
 Charge =  0 Multiplicity = 3

                         Standard orientation:
 ---------------------------------------------------------------------
 Center     Atomic      Atomic             Coordinates (Angstroms)
 Number     Number       Type             X           Y           Z
 ---------------------------------------------------------------------
      1          8           0        0.615183   -3.225183    0.000000
      2          8           0       -0.205061   -2.404939   -0.000000
      3          8           0       -0.205061    2.235061   -0.000000
      4          8           0       -0.205061    3.395061   -0.000000
 ---------------------------------------------------------------------

 SCF Done:  E(ROHF) =  -299.252733400     A.U. after   26 cycles
 E2 =    -0.9206434455D+00 EUMP2 =    -0.30017337684549D+03
 CCSD(T)
 CCSD(T)= -0.30020026675D+03

 The electronic state is 3-A".
 Alpha  occ. eigenvalues --  -20.74017 -20.73940 -20.72946 -20.72830  -1.74516
 Alpha  occ. eigenvalues --   -1.69880  -1.17059  -1.08567  -0.83796  -0.83795
 Alpha  occ. eigenvalues --   -0.78657  -0.78140  -0.75187  -0.67409  -0.50991
 Alpha  occ. eigenvalues --   -0.50989  -0.44825
 Alpha virt. eigenvalues --    0.04950   0.41103   0.43550   0.67975   0.68007
 Alpha virt. eigenvalues --    0.70399   0.70560   0.71638   0.72886   0.77943
 Alpha virt. eigenvalues --    0.79332   0.79789   0.80680   0.82208   0.84714

 Mulliken charges and spin densities:
               1          2
     1  O   -0.000340   0.999617
     2  O    0.000349   1.000377
     3  O    0.000140   0.000006
     4  O   -0.000150  -0.000000
 Sum of Mulliken charges =  -0.00000   2.00000

 Dipole moment (field-independent basis, Debye):
    X=             -0.0018    Y=              0.0007    Z=              0.0000  Tot=              0.0019
 Quadrupole moment (field-independent basis, Debye-Ang):
   XX=            -20.8139   YY=            -20.6256   ZZ=            -18.8837
   XY=              0.3029   XZ=             -0.0000   YZ=             -0.0000

 \CCSD=-300.1622033\CCSD(T)=-300.2002667\RMSD=2.161e-09\PG=CS [SG(O4)]\
 Normal termination of Gaussian 16 at Tue Feb 13 19:12:20 2024.
