 Gaussian 16, Revision A.03,
 Gaussian 16:  ES64L-G16RevA.03 25-Dec-2016

 -----------------------------------------------
 #p ROCCSD(T,MaxCyc=200)/cc-pVTZ SCF(MaxCyc=200)
 -----------------------------------------------

 --------
 O2_O2_69
 --------
 Symbolic Z-matrix:
 Charge =  0 Multiplicity = 3

                         Standard orientation:
 ---------------------------------------------------------------------
 Center     Atomic      Atomic             Coordinates (Angstroms)
 Number     Number       Type             X           Y           Z
 ---------------------------------------------------------------------
      1          8           0        0.000000    0.000000    2.120000
      2          8           0        0.000000    0.000000    0.960000
      3          8           0        0.000000    0.000000   -0.960000
      4          8           0        0.000000    0.000000   -2.120000
 ---------------------------------------------------------------------

 SCF Done:  E(ROHF) =  -299.067011387     A.U. after   13 cycles
 E2 =    -0.1079337576D+01 EUMP2 =    -0.30014634896317D+03
 CCSD(T)
 CCSD(T)= -0.30015460382D+03

 Unable to determine electronic state:  an orbital has unidentified symmetry.
 Alpha  occ. eigenvalues --  -20.77098 -20.77096 -20.73674 -20.73674  -1.74087
 Alpha  occ. eigenvalues --   -1.73123  -1.18973  -1.10283  -0.83337  -0.82812
 Alpha  occ. eigenvalues --   -0.81572  -0.77743  -0.74716  -0.71471  -0.50177
 Alpha  occ. eigenvalues --   -0.46847  -0.33975
 Alpha virt. eigenvalues --   -0.11019   0.44783   0.48783   0.64798   0.65409
 Alpha virt. eigenvalues --    0.71458   0.71519   0.72105   0.76541   0.77461
 Alpha virt. eigenvalues --    0.78548   0.84312   0.85339   0.92928   0.95461

 Mulliken charges and spin densities:
               1          2
     1  O   -0.063017   0.462643
     2  O    0.063017   0.537357
     3  O    0.063017   0.537357
     4  O   -0.063017   0.462643
 Sum of Mulliken charges =  -0.00000   2.00000

 Dipole moment (field-independent basis, Debye):
    X=             -0.0000    Y=             -0.0000    Z=             -0.0000  Tot=              0.0000
 Quadrupole moment (field-independent basis, Debye-Ang):
   XX=            -19.1484   YY=            -20.7397   ZZ=            -22.0785
   XY=              0.0000   XZ=              0.0000   YZ=              0.0000

 MP2-0=-300.146349\MP4SDQ=-300.0753153\CCSD=-300.070115\CCSD(T)=-300.15
 Normal termination of Gaussian 16 at Tue Feb 13 13:55:27 2024.
