 Gaussian 16, Revision A.03,
 Gaussian 16:  ES64L-G16RevA.03 25-Dec-2016

 -----------------------------------------------
 #p ROCCSD(T,MaxCyc=200)/cc-pVTZ SCF(MaxCyc=200)
 -----------------------------------------------

 --------
 O2_O2_82
 --------
 Symbolic Z-matrix:
 Charge =  0 Multiplicity = 3

                         Standard orientation:
 ---------------------------------------------------------------------
 Center     Atomic      Atomic             Coordinates (Angstroms)
 Number     Number       Type             X           Y           Z
 ---------------------------------------------------------------------
      1          8           0        0.615183   -1.945183    0.000000
      2          8           0       -0.205061   -1.124939    0.000000
      3          8           0       -0.205061    0.955061   -0.000000
      4          8           0       -0.205061    2.115061   -0.000000
 ---------------------------------------------------------------------

 SCF Done:  E(ROHF) =  -299.093652249     A.U. after   20 cycles
 E2 =    -0.1087458274D+01 EUMP2 =    -0.30018111052281D+03
 CCSD(T)
 CCSD(T)= -0.30021236471D+03

 The electronic state is 3-A'.
 Alpha  occ. eigenvalues --  -20.76309 -20.75311 -20.74632 -20.74532  -1.73778
 Alpha  occ. eigenvalues --   -1.73031  -1.16712  -1.11458  -0.85325  -0.84026
 Alpha  occ. eigenvalues --   -0.80401  -0.75250  -0.73802  -0.73085  -0.51612
 Alpha  occ. eigenvalues --   -0.50214  -0.31448
 Alpha virt. eigenvalues --   -0.09312   0.43093   0.47597   0.63819   0.66649
 Alpha virt. eigenvalues --    0.70014   0.72206   0.72463   0.75008   0.78153
 Alpha virt. eigenvalues --    0.79039   0.79762   0.85980   0.91435   0.92745

 Mulliken charges and spin densities:
               1          2
     1  O   -0.001431   0.576737
     2  O    0.012890   0.422510
     3  O    0.001656   0.377997
     4  O   -0.013115   0.622757
 Sum of Mulliken charges =  -0.00000   2.00000

 Dipole moment (field-independent basis, Debye):
    X=              0.0104    Y=             -0.0450    Z=             -0.0000  Tot=              0.0462
 Quadrupole moment (field-independent basis, Debye-Ang):
   XX=            -20.0508   YY=            -20.5379   ZZ=            -20.1974
   XY=              0.3696   XZ=             -0.0000   YZ=              0.0000

 \CCSD=-300.1095402\CCSD(T)=-300.2123647\RMSD=9.518e-09\PG=CS [SG(O4)]\
 Normal termination of Gaussian 16 at Tue Feb 13 14:22:54 2024.
