 Gaussian 16, Revision A.03,
 Gaussian 16:  ES64L-G16RevA.03 25-Dec-2016

 -----------------------------------------------
 #p ROCCSD(T,MaxCyc=200)/cc-pVTZ SCF(MaxCyc=200)
 -----------------------------------------------

 --------
 O2_O2_30
 --------
 Symbolic Z-matrix:
 Charge =  0 Multiplicity = 3

                         Standard orientation:
 ---------------------------------------------------------------------
 Center     Atomic      Atomic             Coordinates (Angstroms)
 Number     Number       Type             X           Y           Z
 ---------------------------------------------------------------------
      1          8           0        0.000000    0.000000    1.860000
      2          8           0        0.000000    0.000000    0.700000
      3          8           0        0.000000    0.000000   -0.700000
      4          8           0        0.000000    0.000000   -1.860000
 ---------------------------------------------------------------------

 SCF Done:  E(ROHF) =  -298.936335070     A.U. after   15 cycles
 E2 =    -0.1010686238D+01 EUMP2 =    -0.29994702130822D+03
 CCSD(T)
 CCSD(T)= -0.29998312268D+03

 Unable to determine electronic state:  an orbital has unidentified symmetry.
 Alpha  occ. eigenvalues --  -20.73874 -20.73858 -20.71344 -20.71344  -1.75773
 Alpha  occ. eigenvalues --   -1.71118  -1.32887  -1.04398  -0.87397  -0.87366
 Alpha  occ. eigenvalues --   -0.81499  -0.78387  -0.70388  -0.56351  -0.52511
 Alpha  occ. eigenvalues --   -0.44582  -0.39018
 Alpha virt. eigenvalues --    0.00614   0.45482   0.49641   0.65571   0.66654
 Alpha virt. eigenvalues --    0.68192   0.70401   0.72526   0.73451   0.80355
 Alpha virt. eigenvalues --    0.83983   0.84175   0.92577   0.98771   1.01884

 Mulliken charges and spin densities:
               1          2
     1  O   -0.049206   0.742676
     2  O    0.049206   0.257324
     3  O    0.049206   0.257324
     4  O   -0.049206   0.742676
 Sum of Mulliken charges =  -0.00000   2.00000

 Dipole moment (field-independent basis, Debye):
    X=              0.0000    Y=             -0.0000    Z=              0.0000  Tot=              0.0000
 Quadrupole moment (field-independent basis, Debye-Ang):
   XX=            -19.9371   YY=            -19.3410   ZZ=            -22.5752
   XY=              0.0000   XZ=              0.0000   YZ=              0.0000

 MP2-0=-299.9470213\MP4SDQ=-299.9229196\CCSD=-299.9187751\CCSD(T)=-299.
 Normal termination of Gaussian 16 at Tue Feb 13 12:41:44 2024.
