 Gaussian 16, Revision A.03,
 Gaussian 16:  ES64L-G16RevA.03 25-Dec-2016

 -----------------------------------------------
 #p ROCCSD(T,MaxCyc=200)/cc-pVTZ SCF(MaxCyc=200)
 -----------------------------------------------

 ---------
 O2_O2_140
 ---------
 Symbolic Z-matrix:
 Charge =  0 Multiplicity = 3

                         Standard orientation:
 ---------------------------------------------------------------------
 Center     Atomic      Atomic             Coordinates (Angstroms)
 Number     Number       Type             X           Y           Z
 ---------------------------------------------------------------------
      1          8           0       -0.870000   -1.710000    0.000000
      2          8           0        0.290000   -1.710000    0.000000
      3          8           0        0.290000    1.130000    0.000000
      4          8           0        0.290000    2.290000    0.000000
 ---------------------------------------------------------------------

 SCF Done:  E(ROHF) =  -299.251723109     A.U. after   25 cycles
 E2 =    -0.9219930857D+00 EUMP2 =    -0.30017371619436D+03
 CCSD(T)
 CCSD(T)= -0.30020048854D+03

 The electronic state is 3-A".
 Alpha  occ. eigenvalues --  -20.73858 -20.73781 -20.73038 -20.72915  -1.74376
 Alpha  occ. eigenvalues --   -1.69985  -1.16925  -1.08727  -0.83781  -0.83660
 Alpha  occ. eigenvalues --   -0.78757  -0.78040  -0.75167  -0.67513  -0.50877
 Alpha  occ. eigenvalues --   -0.50852  -0.44901
 Alpha virt. eigenvalues --    0.04820   0.40815   0.43550   0.63455   0.66016
 Alpha virt. eigenvalues --    0.67955   0.71800   0.72332   0.75115   0.77369
 Alpha virt. eigenvalues --    0.78417   0.79588   0.79923   0.86228   0.87673

 Mulliken charges and spin densities:
               1          2
     1  O    0.001252   0.999995
     2  O   -0.001315   0.999689
     3  O   -0.001212   0.000187
     4  O    0.001276   0.000130
 Sum of Mulliken charges =  -0.00000   2.00000

 Dipole moment (field-independent basis, Debye):
    X=              0.0050    Y=              0.0306    Z=              0.0000  Tot=              0.0310
 Quadrupole moment (field-independent basis, Debye-Ang):
   XX=            -21.1127   YY=            -20.3530   ZZ=            -18.8846
   XY=              0.0021   XZ=              0.0000   YZ=              0.0000

 Normal termination of Gaussian 16 at Tue Feb 13 16:33:12 2024.
