 Gaussian 16, Revision A.03,
 Gaussian 16:  ES64L-G16RevA.03 25-Dec-2016

 -----------------------------------------------
 #p ROCCSD(T,MaxCyc=200)/cc-pVTZ SCF(MaxCyc=200)
 -----------------------------------------------

 --------
 O2_O2_76
 --------
 Symbolic Z-matrix:
 Charge =  0 Multiplicity = 3

                         Standard orientation:
 ---------------------------------------------------------------------
 Center     Atomic      Atomic             Coordinates (Angstroms)
 Number     Number       Type             X           Y           Z
 ---------------------------------------------------------------------
      1          8           0        0.615183   -1.905183    0.000000
      2          8           0       -0.205061   -1.084939    0.000000
      3          8           0       -0.205061    0.915062    0.000000
      4          8           0       -0.205061    2.075060    0.000000
 ---------------------------------------------------------------------

 SCF Done:  E(ROHF) =  -299.093306446     A.U. after   20 cycles
 E2 =    -0.1079085771D+01 EUMP2 =    -0.30017239221728D+03
 CCSD(T)
 CCSD(T)= -0.30020406026D+03

 The electronic state is 3-A'.
 Alpha  occ. eigenvalues --  -20.76445 -20.75186 -20.74422 -20.74367  -1.73873
 Alpha  occ. eigenvalues --   -1.72940  -1.17431  -1.11039  -0.85619  -0.84013
 Alpha  occ. eigenvalues --   -0.80677  -0.75412  -0.73039  -0.72921  -0.51640
 Alpha  occ. eigenvalues --   -0.49979  -0.31990
 Alpha virt. eigenvalues --   -0.08677   0.43390   0.47788   0.63846   0.66765
 Alpha virt. eigenvalues --    0.70199   0.72313   0.72595   0.75012   0.78018
 Alpha virt. eigenvalues --    0.78808   0.80139   0.85878   0.92741   0.94164

 Mulliken charges and spin densities:
               1          2
     1  O   -0.006419   0.574390
     2  O    0.020066   0.423900
     3  O    0.001312   0.368058
     4  O   -0.014958   0.633652
 Sum of Mulliken charges =  -0.00000   2.00000

 Dipole moment (field-independent basis, Debye):
    X=             -0.0049    Y=             -0.0440    Z=             -0.0000  Tot=              0.0443
 Quadrupole moment (field-independent basis, Debye-Ang):
   XX=            -20.0556   YY=            -20.6376   ZZ=            -20.1955
   XY=              0.4044   XZ=              0.0000   YZ=              0.0000

 \CCSD=-300.1056357\CCSD(T)=-300.2040603\RMSD=6.042e-09\PG=CS [SG(O4)]\
 Normal termination of Gaussian 16 at Tue Feb 13 14:10:34 2024.
