 Gaussian 16, Revision A.03,
 Gaussian 16:  ES64L-G16RevA.03 25-Dec-2016

 -----------------------------------------------
 #p ROCCSD(T,MaxCyc=200)/cc-pVTZ SCF(MaxCyc=200)
 -----------------------------------------------

 ---------
 O2_O2_296
 ---------
 Symbolic Z-matrix:
 Charge =  0 Multiplicity = 3

                         Standard orientation:
 ---------------------------------------------------------------------
 Center     Atomic      Atomic             Coordinates (Angstroms)
 Number     Number       Type             X           Y           Z
 ---------------------------------------------------------------------
      1          8           0       -0.870000   -2.750000    0.000000
      2          8           0        0.290000   -2.750000    0.000000
      3          8           0        0.290000    2.170000    0.000000
      4          8           0        0.290000    3.330000    0.000000
 ---------------------------------------------------------------------

 SCF Done:  E(ROHF) =  -299.252731283     A.U. after   34 cycles
 E2 =    -0.9206245530D+00 EUMP2 =    -0.30017335583632D+03
 CCSD(T)
 CCSD(T)= -0.30020025285D+03

 The electronic state is 3-A".
 Alpha  occ. eigenvalues --  -20.74013 -20.73937 -20.72982 -20.72866  -1.74512
 Alpha  occ. eigenvalues --   -1.69916  -1.17057  -1.08605  -0.83793  -0.83791
 Alpha  occ. eigenvalues --   -0.78692  -0.78138  -0.75226  -0.67444  -0.50988
 Alpha  occ. eigenvalues --   -0.50987  -0.44861
 Alpha virt. eigenvalues --    0.04914   0.41434   0.43228   0.67979   0.68010
 Alpha virt. eigenvalues --    0.70367   0.70526   0.72064   0.72538   0.78014
 Alpha virt. eigenvalues --    0.79673   0.79792   0.80034   0.82174   0.84675

 Mulliken charges and spin densities:
               1          2
     1  O    0.000030   1.000030
     2  O   -0.000026   0.999970
     3  O   -0.000224   0.000000
     4  O    0.000220  -0.000000
 Sum of Mulliken charges =  -0.00000   2.00000

 Dipole moment (field-independent basis, Debye):
    X=              0.0002    Y=              0.0030    Z=              0.0000  Tot=              0.0030
 Quadrupole moment (field-independent basis, Debye-Ang):
   XX=            -21.1131   YY=            -20.3020   ZZ=            -18.8835
   XY=              0.0010   XZ=              0.0000   YZ=              0.0000

 CCSD(T)=-300.2002529\RMSD=3.048e-09\PG=CS [SG(O4)]\\@
 Normal termination of Gaussian 16 at Tue Feb 13 19:31:06 2024.
