 Gaussian 16, Revision A.03,
 Gaussian 16:  ES64L-G16RevA.03 25-Dec-2016

 -----------------------------------------------
 #p ROCCSD(T,MaxCyc=200)/cc-pVTZ SCF(MaxCyc=200)
 -----------------------------------------------

 ---------
 O2_O2_120
 ---------
 Symbolic Z-matrix:
 Charge =  0 Multiplicity = 3

                         Standard orientation:
 ---------------------------------------------------------------------
 Center     Atomic      Atomic             Coordinates (Angstroms)
 Number     Number       Type             X           Y           Z
 ---------------------------------------------------------------------
      1          8           0        0.000000    0.000000    2.460000
      2          8           0        0.000000    0.000000    1.300000
      3          8           0        0.000000    0.000000   -1.300000
      4          8           0        0.000000    0.000000   -2.460000
 ---------------------------------------------------------------------

 SCF Done:  E(ROHF) =  -299.053503182     A.U. after   13 cycles
 E2 =    -0.1136769082D+01 EUMP2 =    -0.30019027226420D+03
 CCSD(T)
 CCSD(T)= -0.30018903775D+03

 Unable to determine electronic state:  an orbital has unidentified symmetry.
 Alpha  occ. eigenvalues --  -20.76555 -20.76554 -20.74621 -20.74621  -1.73521
 Alpha  occ. eigenvalues --   -1.73385  -1.14670  -1.12982  -0.82448  -0.82137
 Alpha  occ. eigenvalues --   -0.79161  -0.76677  -0.76376  -0.75642  -0.48914
 Alpha  occ. eigenvalues --   -0.48177  -0.30742
 Alpha virt. eigenvalues --   -0.14718   0.40608   0.48523   0.65468   0.65827
 Alpha virt. eigenvalues --    0.67734   0.70480   0.70578   0.75739   0.76462
 Alpha virt. eigenvalues --    0.77513   0.80735   0.85438   0.86750   0.89058

 Mulliken charges and spin densities:
               1          2
     1  O   -0.025854   0.474298
     2  O    0.025854   0.525702
     3  O    0.025854   0.525702
     4  O   -0.025854   0.474298
 Sum of Mulliken charges =   0.00000   2.00000

 Dipole moment (field-independent basis, Debye):
    X=             -0.0000    Y=             -0.0000    Z=             -0.0000  Tot=              0.0000
 Quadrupole moment (field-independent basis, Debye-Ang):
   XX=            -20.7394   YY=            -19.1316   ZZ=            -21.5487
   XY=              0.0000   XZ=              0.0000   YZ=              0.0000

 P2-0=-300.1902723\MP4SDQ=-300.0657857\CCSD=-300.076069\CCSD(T)=-300.18
 Normal termination of Gaussian 16 at Tue Feb 13 15:48:01 2024.
