 Gaussian 16, Revision A.03,
 Gaussian 16:  ES64L-G16RevA.03 25-Dec-2016

 -----------------------------------------------
 #p ROCCSD(T,MaxCyc=200)/cc-pVTZ SCF(MaxCyc=200)
 -----------------------------------------------

 ---------
 O2_O2_229
 ---------
 Symbolic Z-matrix:
 Charge =  0 Multiplicity = 3

                         Standard orientation:
 ---------------------------------------------------------------------
 Center     Atomic      Atomic             Coordinates (Angstroms)
 Number     Number       Type             X           Y           Z
 ---------------------------------------------------------------------
      1          8           0        0.615183   -2.925183   -0.000000
      2          8           0       -0.205061   -2.104939   -0.000000
      3          8           0       -0.205061    1.935061    0.000000
      4          8           0       -0.205061    3.095061    0.000000
 ---------------------------------------------------------------------

 SCF Done:  E(ROHF) =  -299.252762431     A.U. after   28 cycles
 E2 =    -0.9207397467D+00 EUMP2 =    -0.30017350217744D+03
 CCSD(T)
 CCSD(T)= -0.30020037305D+03

 The electronic state is 3-A".
 Alpha  occ. eigenvalues --  -20.74010 -20.73933 -20.72939 -20.72823  -1.74508
 Alpha  occ. eigenvalues --   -1.69874  -1.17050  -1.08559  -0.83788  -0.83784
 Alpha  occ. eigenvalues --   -0.78650  -0.78131  -0.75177  -0.67402  -0.50983
 Alpha  occ. eigenvalues --   -0.50978  -0.44818
 Alpha virt. eigenvalues --    0.04957   0.39568   0.44597   0.67322   0.68001
 Alpha virt. eigenvalues --    0.70041   0.70469   0.70568   0.73891   0.77751
 Alpha virt. eigenvalues --    0.78847   0.79760   0.82277   0.83715   0.84773

 Mulliken charges and spin densities:
               1          2
     1  O   -0.000269   0.999541
     2  O    0.000358   1.000399
     3  O   -0.000021   0.000060
     4  O   -0.000068  -0.000000
 Sum of Mulliken charges =  -0.00000   2.00000

 Dipole moment (field-independent basis, Debye):
    X=             -0.0023    Y=             -0.0008    Z=              0.0000  Tot=              0.0024
 Quadrupole moment (field-independent basis, Debye-Ang):
   XX=            -20.8139   YY=            -20.6276   ZZ=            -18.8839
   XY=              0.3032   XZ=              0.0000   YZ=             -0.0000

 5\CCSD=-300.1622992\CCSD(T)=-300.2003731\RMSD=3.063e-09\PG=CS [SG(O4)]
 Normal termination of Gaussian 16 at Tue Feb 13 18:20:03 2024.
