 Gaussian 16, Revision A.03,
 Gaussian 16:  ES64L-G16RevA.03 25-Dec-2016

 -----------------------------------------------
 #p ROCCSD(T,MaxCyc=200)/cc-pVTZ SCF(MaxCyc=200)
 -----------------------------------------------

 --------
 O2_O2_59
 --------
 Symbolic Z-matrix:
 Charge =  0 Multiplicity = 3

                         Standard orientation:
 ---------------------------------------------------------------------
 Center     Atomic      Atomic             Coordinates (Angstroms)
 Number     Number       Type             X           Y           Z
 ---------------------------------------------------------------------
      1          8           0       -0.870000   -1.170000    0.000000
      2          8           0        0.290000   -1.170000    0.000000
      3          8           0        0.290000    0.590000    0.000000
      4          8           0        0.290000    1.750000    0.000000
 ---------------------------------------------------------------------

 SCF Done:  E(ROHF) =  -299.082225341     A.U. after   21 cycles
 E2 =    -0.1037545314D+01 EUMP2 =    -0.30011977065479D+03
 CCSD(T)
 CCSD(T)= -0.30014834326D+03

 The electronic state is 3-A'.
 Alpha  occ. eigenvalues --  -20.76816 -20.76193 -20.72749 -20.72100  -1.75738
 Alpha  occ. eigenvalues --   -1.71217  -1.18359  -1.11605  -0.86446  -0.83652
 Alpha  occ. eigenvalues --   -0.82090  -0.79005  -0.73340  -0.64653  -0.53074
 Alpha  occ. eigenvalues --   -0.48831  -0.35488
 Alpha virt. eigenvalues --   -0.04357   0.41081   0.48124   0.64208   0.65925
 Alpha virt. eigenvalues --    0.70085   0.70799   0.71673   0.76078   0.77548
 Alpha virt. eigenvalues --    0.78444   0.82225   0.86312   0.88094   0.96051

 Mulliken charges and spin densities:
               1          2
     1  O    0.017481   0.533690
     2  O    0.057853   0.468166
     3  O   -0.044377   0.313140
     4  O   -0.030957   0.685004
 Sum of Mulliken charges =  -0.00000   2.00000

 Dipole moment (field-independent basis, Debye):
    X=              0.0553    Y=             -0.4864    Z=              0.0000  Tot=              0.4896
 Quadrupole moment (field-independent basis, Debye-Ang):
   XX=            -20.3630   YY=            -20.9197   ZZ=            -19.5737
   XY=              0.1954   XZ=              0.0000   YZ=              0.0000

 Normal termination of Gaussian 16 at Tue Feb 13 13:34:54 2024.
