 Gaussian 16, Revision A.03,
 Gaussian 16:  ES64L-G16RevA.03 25-Dec-2016

 -----------------------------------------------
 #p ROCCSD(T,MaxCyc=200)/cc-pVTZ SCF(MaxCyc=200)
 -----------------------------------------------

 ---------
 O2_O2_218
 ---------
 Symbolic Z-matrix:
 Charge =  0 Multiplicity = 3

                         Standard orientation:
 ---------------------------------------------------------------------
 Center     Atomic      Atomic             Coordinates (Angstroms)
 Number     Number       Type             X           Y           Z
 ---------------------------------------------------------------------
      1          8           0       -0.870000   -2.230000    0.000000
      2          8           0        0.290000   -2.230000    0.000000
      3          8           0        0.290000    1.650000    0.000000
      4          8           0        0.290000    2.810000    0.000000
 ---------------------------------------------------------------------

 SCF Done:  E(ROHF) =  -299.252846871     A.U. after   61 cycles
 E2 =    -0.9207852343D+00 EUMP2 =    -0.30017363210485D+03
 CCSD(T)
 CCSD(T)= -0.30020049636D+03

 The electronic state is 3-A".
 Alpha  occ. eigenvalues --  -20.74263 -20.74150 -20.72902 -20.72786  -1.74735
 Alpha  occ. eigenvalues --   -1.69831  -1.17294  -1.08520  -0.84016  -0.84016
 Alpha  occ. eigenvalues --   -0.78610  -0.78385  -0.75142  -0.67351  -0.51217
 Alpha  occ. eigenvalues --   -0.51216  -0.44779
 Alpha virt. eigenvalues --    0.04995   0.40391   0.43391   0.66364   0.67764
 Alpha virt. eigenvalues --    0.67796   0.70453   0.72576   0.74472   0.78445
 Alpha virt. eigenvalues --    0.79598   0.79908   0.80184   0.82282   0.85748

 Mulliken charges and spin densities:
               1          2
     1  O   -0.000175   0.000005
     2  O    0.000456   0.000005
     3  O   -0.003500   0.996594
     4  O    0.003219   1.003395
 Sum of Mulliken charges =  -0.00000   2.00000

 Dipole moment (field-independent basis, Debye):
    X=              0.0030    Y=              0.0226    Z=              0.0000  Tot=              0.0228
 Quadrupole moment (field-independent basis, Debye-Ang):
   XX=            -20.3053   YY=            -19.3807   ZZ=            -20.5127
   XY=              0.0072   XZ=              0.0000   YZ=              0.0000

 Normal termination of Gaussian 16 at Tue Feb 13 18:07:28 2024.
