 Gaussian 16, Revision A.03,
 Gaussian 16:  ES64L-G16RevA.03 25-Dec-2016

 -----------------------------------------------
 #p ROCCSD(T,MaxCyc=200)/cc-pVTZ SCF(MaxCyc=200)
 -----------------------------------------------

 ---------
 O2_O2_205
 ---------
 Symbolic Z-matrix:
 Charge =  0 Multiplicity = 3

                         Standard orientation:
 ---------------------------------------------------------------------
 Center     Atomic      Atomic             Coordinates (Angstroms)
 Number     Number       Type             X           Y           Z
 ---------------------------------------------------------------------
      1          8           0        0.615183   -2.765183    0.000000
      2          8           0       -0.205061   -1.944939    0.000000
      3          8           0       -0.205061    1.775061   -0.000000
      4          8           0       -0.205061    2.935061   -0.000000
 ---------------------------------------------------------------------

 SCF Done:  E(ROHF) =  -299.252772089     A.U. after   32 cycles
 E2 =    -0.9208536119D+00 EUMP2 =    -0.30017362570131D+03
 CCSD(T)
 CCSD(T)= -0.30020047814D+03

 The electronic state is 3-A".
 Alpha  occ. eigenvalues --  -20.74005 -20.73927 -20.72933 -20.72817  -1.74501
 Alpha  occ. eigenvalues --   -1.69868  -1.17043  -1.08552  -0.83783  -0.83777
 Alpha  occ. eigenvalues --   -0.78644  -0.78126  -0.75167  -0.67397  -0.50977
 Alpha  occ. eigenvalues --   -0.50969  -0.44812
 Alpha virt. eigenvalues --    0.04963   0.38414   0.45299   0.66055   0.67954
 Alpha virt. eigenvalues --    0.69395   0.70525   0.70584   0.74423   0.77879
 Alpha virt. eigenvalues --    0.78629   0.79643   0.82491   0.84965   0.85990

 Mulliken charges and spin densities:
               1          2
     1  O   -0.000112   0.999442
     2  O    0.000297   1.000428
     3  O   -0.000405   0.000127
     4  O    0.000220   0.000003
 Sum of Mulliken charges =  -0.00000   2.00000

 Dipole moment (field-independent basis, Debye):
    X=             -0.0029    Y=             -0.0021    Z=             -0.0000  Tot=              0.0036
 Quadrupole moment (field-independent basis, Debye-Ang):
   XX=            -20.8139   YY=            -20.6305   ZZ=            -18.8841
   XY=              0.3040   XZ=             -0.0000   YZ=              0.0000

 8\CCSD=-300.1623911\CCSD(T)=-300.2004781\RMSD=2.171e-09\PG=CS [SG(O4)]
 Normal termination of Gaussian 16 at Tue Feb 13 17:50:38 2024.
