 Gaussian 16, Revision A.03,
 Gaussian 16:  ES64L-G16RevA.03 25-Dec-2016

 -----------------------------------------------
 #p ROCCSD(T,MaxCyc=200)/cc-pVTZ SCF(MaxCyc=200)
 -----------------------------------------------

 ---------
 O2_O2_196
 ---------
 Symbolic Z-matrix:
 Charge =  0 Multiplicity = 3

                         Standard orientation:
 ---------------------------------------------------------------------
 Center     Atomic      Atomic             Coordinates (Angstroms)
 Number     Number       Type             X           Y           Z
 ---------------------------------------------------------------------
      1          8           0        0.615183   -2.705183    0.000000
      2          8           0       -0.205061   -1.884939    0.000000
      3          8           0       -0.205061    1.715061   -0.000000
      4          8           0       -0.205061    2.875061   -0.000000
 ---------------------------------------------------------------------

 SCF Done:  E(ROHF) =  -299.252765330     A.U. after   25 cycles
 E2 =    -0.9209140266D+00 EUMP2 =    -0.30017367935612D+03
 CCSD(T)
 CCSD(T)= -0.30020052330D+03

 The electronic state is 3-A".
 Alpha  occ. eigenvalues --  -20.74002 -20.73923 -20.72930 -20.72814  -1.74498
 Alpha  occ. eigenvalues --   -1.69865  -1.17039  -1.08549  -0.83779  -0.83773
 Alpha  occ. eigenvalues --   -0.78642  -0.78123  -0.75161  -0.67394  -0.50973
 Alpha  occ. eigenvalues --   -0.50964  -0.44809
 Alpha virt. eigenvalues --    0.04965   0.38084   0.45533   0.65522   0.67911
 Alpha virt. eigenvalues --    0.69222   0.70585   0.70597   0.74582   0.77991
 Alpha virt. eigenvalues --    0.78531   0.79550   0.82655   0.85120   0.86203

 Mulliken charges and spin densities:
               1          2
     1  O   -0.000068   0.999366
     2  O    0.000286   1.000475
     3  O   -0.000591   0.000154
     4  O    0.000372   0.000006
 Sum of Mulliken charges =  -0.00000   2.00000

 Dipole moment (field-independent basis, Debye):
    X=             -0.0033    Y=             -0.0023    Z=             -0.0000  Tot=              0.0040
 Quadrupole moment (field-independent basis, Debye-Ang):
   XX=            -20.8139   YY=            -20.6335   ZZ=            -18.8842
   XY=              0.3046   XZ=             -0.0000   YZ=              0.0000

 9\CCSD=-300.1624291\CCSD(T)=-300.2005233\RMSD=4.718e-09\PG=CS [SG(O4)]
 Normal termination of Gaussian 16 at Tue Feb 13 17:39:56 2024.
