 Gaussian 16, Revision A.03,
 Gaussian 16:  ES64L-G16RevA.03 25-Dec-2016

 -----------------------------------------------
 #p ROCCSD(T,MaxCyc=200)/cc-pVTZ SCF(MaxCyc=200)
 -----------------------------------------------

 ---------
 O2_O2_239
 ---------
 Symbolic Z-matrix:
 Charge =  0 Multiplicity = 3

                         Standard orientation:
 ---------------------------------------------------------------------
 Center     Atomic      Atomic             Coordinates (Angstroms)
 Number     Number       Type             X           Y           Z
 ---------------------------------------------------------------------
      1          8           0       -0.870000   -2.370000    0.000000
      2          8           0        0.290000   -2.370000    0.000000
      3          8           0        0.290000    1.790000    0.000000
      4          8           0        0.290000    2.950000    0.000000
 ---------------------------------------------------------------------

 SCF Done:  E(ROHF) =  -299.252761591     A.U. after   32 cycles
 E2 =    -0.9207196422D+00 EUMP2 =    -0.30017348123353D+03
 CCSD(T)
 CCSD(T)= -0.30020036108D+03

 The electronic state is 3-A".
 Alpha  occ. eigenvalues --  -20.73998 -20.73922 -20.72995 -20.72879  -1.74496
 Alpha  occ. eigenvalues --   -1.69928  -1.17040  -1.08618  -0.83778  -0.83772
 Alpha  occ. eigenvalues --   -0.78704  -0.78122  -0.75239  -0.67456  -0.50973
 Alpha  occ. eigenvalues --   -0.50968  -0.44873
 Alpha virt. eigenvalues --    0.04901   0.41391   0.42906   0.66764   0.68007
 Alpha virt. eigenvalues --    0.70333   0.70526   0.72083   0.73505   0.78006
 Alpha virt. eigenvalues --    0.79072   0.79803   0.80969   0.82487   0.84673

 Mulliken charges and spin densities:
               1          2
     1  O    0.000214   1.000237
     2  O   -0.000119   0.999750
     3  O   -0.000525   0.000013
     4  O    0.000430   0.000000
 Sum of Mulliken charges =  -0.00000   2.00000

 Dipole moment (field-independent basis, Debye):
    X=             -0.0004    Y=              0.0039    Z=              0.0000  Tot=              0.0040
 Quadrupole moment (field-independent basis, Debye-Ang):
   XX=            -21.1123   YY=            -20.2953   ZZ=            -18.8837
   XY=              0.0034   XZ=              0.0000   YZ=              0.0000

 CCSD(T)=-300.2003611\RMSD=1.681e-09\PG=CS [SG(O4)]\\@
 Normal termination of Gaussian 16 at Tue Feb 13 18:32:12 2024.
