 Gaussian 16, Revision A.03,
 Gaussian 16:  ES64L-G16RevA.03 25-Dec-2016

 -----------------------------------------------
 #p ROCCSD(T,MaxCyc=200)/cc-pVTZ SCF(MaxCyc=200)
 -----------------------------------------------

 ---------
 O2_O2_241
 ---------
 Symbolic Z-matrix:
 Charge =  0 Multiplicity = 3

                         Standard orientation:
 ---------------------------------------------------------------------
 Center     Atomic      Atomic             Coordinates (Angstroms)
 Number     Number       Type             X           Y           Z
 ---------------------------------------------------------------------
      1          8           0        0.615183   -3.005183    0.000000
      2          8           0       -0.205061   -2.184939   -0.000000
      3          8           0       -0.205061    2.015061   -0.000000
      4          8           0       -0.205061    3.175061   -0.000000
 ---------------------------------------------------------------------

 SCF Done:  E(ROHF) =  -299.252752635     A.U. after   25 cycles
 E2 =    -0.9207026749D+00 EUMP2 =    -0.30017345530962D+03
 CCSD(T)
 CCSD(T)= -0.30020033314D+03

 The electronic state is 3-A".
 Alpha  occ. eigenvalues --  -20.74012 -20.73935 -20.72941 -20.72825  -1.74510
 Alpha  occ. eigenvalues --   -1.69876  -1.17052  -1.08561  -0.83790  -0.83787
 Alpha  occ. eigenvalues --   -0.78652  -0.78133  -0.75181  -0.67404  -0.50985
 Alpha  occ. eigenvalues --   -0.50981  -0.44820
 Alpha virt. eigenvalues --    0.04955   0.40119   0.44249   0.67672   0.68007
 Alpha virt. eigenvalues --    0.70358   0.70565   0.70617   0.73588   0.77780
 Alpha virt. eigenvalues --    0.78953   0.79779   0.82234   0.82510   0.84740

 Mulliken charges and spin densities:
               1          2
     1  O   -0.000320   0.999562
     2  O    0.000375   1.000402
     3  O    0.000076   0.000037
     4  O   -0.000130  -0.000000
 Sum of Mulliken charges =  -0.00000   2.00000

 Dipole moment (field-independent basis, Debye):
    X=             -0.0021    Y=             -0.0001    Z=             -0.0000  Tot=              0.0021
 Quadrupole moment (field-independent basis, Debye-Ang):
   XX=            -20.8139   YY=            -20.6272   ZZ=            -18.8838
   XY=              0.3031   XZ=             -0.0000   YZ=              0.0000

 5\CCSD=-300.1622633\CCSD(T)=-300.2003331\RMSD=3.907e-09\PG=CS [SG(O4)]
 Normal termination of Gaussian 16 at Tue Feb 13 18:33:58 2024.
