 Gaussian 16, Revision A.03,
 Gaussian 16:  ES64L-G16RevA.03 25-Dec-2016

 -----------------------------------------------
 #p ROCCSD(T,MaxCyc=200)/cc-pVTZ SCF(MaxCyc=200)
 -----------------------------------------------

 ---------
 O2_O2_295
 ---------
 Symbolic Z-matrix:
 Charge =  0 Multiplicity = 3

                         Standard orientation:
 ---------------------------------------------------------------------
 Center     Atomic      Atomic             Coordinates (Angstroms)
 Number     Number       Type             X           Y           Z
 ---------------------------------------------------------------------
      1          8           0        0.615183   -3.365183   -0.000000
      2          8           0       -0.205061   -2.544939    0.000000
      3          8           0       -0.205061    2.375061    0.000000
      4          8           0       -0.205061    3.535061    0.000000
 ---------------------------------------------------------------------

 SCF Done:  E(ROHF) =  -299.252729057     A.U. after   38 cycles
 E2 =    -0.9206242874D+00 EUMP2 =    -0.30017335334420D+03
 CCSD(T)
 CCSD(T)= -0.30020024790D+03

 The electronic state is 3-A".
 Alpha  occ. eigenvalues --  -20.74020 -20.73944 -20.72948 -20.72832  -1.74520
 Alpha  occ. eigenvalues --   -1.69882  -1.17064  -1.08569  -0.83800  -0.83799
 Alpha  occ. eigenvalues --   -0.78659  -0.78145  -0.75190  -0.67411  -0.50995
 Alpha  occ. eigenvalues --   -0.50994  -0.44827
 Alpha virt. eigenvalues --    0.04948   0.41335   0.43364   0.68001   0.68005
 Alpha virt. eigenvalues --    0.70397   0.70558   0.71931   0.72655   0.77989
 Alpha virt. eigenvalues --    0.79560   0.79786   0.80229   0.82203   0.84710

 Mulliken charges and spin densities:
               1          2
     1  O   -0.000305   0.999663
     2  O    0.000307   1.000335
     3  O    0.000126   0.000002
     4  O   -0.000128  -0.000000
 Sum of Mulliken charges =  -0.00000   2.00000

 Dipole moment (field-independent basis, Debye):
    X=             -0.0015    Y=              0.0008    Z=             -0.0000  Tot=              0.0017
 Quadrupole moment (field-independent basis, Debye-Ang):
   XX=            -20.8138   YY=            -20.6237   ZZ=            -18.8836
   XY=              0.3027   XZ=             -0.0000   YZ=              0.0000

 5\CCSD=-300.1621862\CCSD(T)=-300.2002479\RMSD=3.759e-09\PG=CS [SG(O4)]
 Normal termination of Gaussian 16 at Tue Feb 13 19:29:30 2024.
