 Gaussian 16, Revision A.03,
 Gaussian 16:  ES64L-G16RevA.03 25-Dec-2016

 -----------------------------------------------
 #p ROCCSD(T,MaxCyc=200)/cc-pVTZ SCF(MaxCyc=200)
 -----------------------------------------------

 --------
 O2_O2_26
 --------
 Symbolic Z-matrix:
 Charge =  0 Multiplicity = 3

                         Standard orientation:
 ---------------------------------------------------------------------
 Center     Atomic      Atomic             Coordinates (Angstroms)
 Number     Number       Type             X           Y           Z
 ---------------------------------------------------------------------
      1          8           0       -0.870000   -0.950000    0.000000
      2          8           0        0.290000   -0.950000    0.000000
      3          8           0        0.290000    0.370000    0.000000
      4          8           0        0.290000    1.530000    0.000000
 ---------------------------------------------------------------------

 SCF Done:  E(ROHF) =  -298.915760925     A.U. after   32 cycles
 E2 =    -0.9692263054D+00 EUMP2 =    -0.29988498723056D+03
 CCSD(T)
 CCSD(T)= -0.29992017390D+03

 The electronic state is 3-A".
 Alpha  occ. eigenvalues --  -20.88753 -20.75807 -20.72938 -20.60532  -1.86249
 Alpha  occ. eigenvalues --   -1.70820  -1.30849  -1.10551  -0.93566  -0.89476
 Alpha  occ. eigenvalues --   -0.85248  -0.78918  -0.76643  -0.54237  -0.50598
 Alpha  occ. eigenvalues --   -0.47616  -0.45031
 Alpha virt. eigenvalues --    0.07913   0.40774   0.47070   0.60132   0.64478
 Alpha virt. eigenvalues --    0.67306   0.69149   0.73567   0.74956   0.80788
 Alpha virt. eigenvalues --    0.81252   0.86170   0.86635   0.88404   0.98693

 Mulliken charges and spin densities:
               1          2
     1  O   -0.318578   0.237541
     2  O    0.300387   0.312292
     3  O    0.104736   0.650119
     4  O   -0.086545   0.800048
 Sum of Mulliken charges =  -0.00000   2.00000

 Dipole moment (field-independent basis, Debye):
    X=              1.8470    Y=             -0.0470    Z=              0.0000  Tot=              1.8476
 Quadrupole moment (field-independent basis, Debye-Ang):
   XX=            -21.0527   YY=            -21.5545   ZZ=            -20.1028
   XY=             -1.9801   XZ=              0.0000   YZ=              0.0000

 Normal termination of Gaussian 16 at Tue Feb 13 12:35:15 2024.
