 Gaussian 16, Revision A.03,
 Gaussian 16:  ES64L-G16RevA.03 25-Dec-2016

 -----------------------------------------------
 #p ROCCSD(T,MaxCyc=200)/cc-pVTZ SCF(MaxCyc=200)
 -----------------------------------------------

 --------
 O2_O2_32
 --------
 Symbolic Z-matrix:
 Charge =  0 Multiplicity = 3

                         Standard orientation:
 ---------------------------------------------------------------------
 Center     Atomic      Atomic             Coordinates (Angstroms)
 Number     Number       Type             X           Y           Z
 ---------------------------------------------------------------------
      1          8           0       -0.870000   -0.990000    0.000000
      2          8           0        0.290000   -0.990000    0.000000
      3          8           0        0.290000    0.410000    0.000000
      4          8           0        0.290000    1.570000    0.000000
 ---------------------------------------------------------------------

 SCF Done:  E(ROHF) =  -298.987446805     A.U. after   26 cycles
 E2 =    -0.9448933059D+00 EUMP2 =    -0.29993234011093D+03
 CCSD(T)
 CCSD(T)= -0.29997048133D+03

 The electronic state is 3-A".
 Alpha  occ. eigenvalues --  -20.79292 -20.78389 -20.76760 -20.59293  -1.83344
 Alpha  occ. eigenvalues --   -1.70466  -1.29220  -1.07898  -0.91847  -0.91019
 Alpha  occ. eigenvalues --   -0.86799  -0.77580  -0.72460  -0.55679  -0.55617
 Alpha  occ. eigenvalues --   -0.49253  -0.40661
 Alpha virt. eigenvalues --    0.08551   0.43550   0.45374   0.62144   0.63940
 Alpha virt. eigenvalues --    0.66753   0.71027   0.72517   0.73443   0.81455
 Alpha virt. eigenvalues --    0.83718   0.85171   0.85540   0.88375   0.99362

 Mulliken charges and spin densities:
               1          2
     1  O   -0.316574   0.018027
     2  O    0.148752   0.052168
     3  O    0.162709   0.922609
     4  O    0.005112   1.007196
 Sum of Mulliken charges =   0.00000   2.00000

 Dipole moment (field-independent basis, Debye):
    X=              1.7091    Y=              1.4208    Z=              0.0000  Tot=              2.2225
 Quadrupole moment (field-independent basis, Debye-Ang):
   XX=            -21.3595   YY=            -20.5692   ZZ=            -20.1423
   XY=             -1.3507   XZ=              0.0000   YZ=              0.0000

 Normal termination of Gaussian 16 at Tue Feb 13 12:45:35 2024.
