 Gaussian 16, Revision A.03,
 Gaussian 16:  ES64L-G16RevA.03 25-Dec-2016

 -----------------------------------------------
 #p ROCCSD(T,MaxCyc=200)/cc-pVTZ SCF(MaxCyc=200)
 -----------------------------------------------

 --------
 O2_O2_34
 --------
 Symbolic Z-matrix:
 Charge =  0 Multiplicity = 3

                         Standard orientation:
 ---------------------------------------------------------------------
 Center     Atomic      Atomic             Coordinates (Angstroms)
 Number     Number       Type             X           Y           Z
 ---------------------------------------------------------------------
      1          8           0        0.615183   -1.625183   -0.000000
      2          8           0       -0.205061   -0.804939   -0.000000
      3          8           0       -0.205061    0.635061    0.000000
      4          8           0       -0.205061    1.795061    0.000000
 ---------------------------------------------------------------------

 SCF Done:  E(ROHF) =  -299.048417865     A.U. after   22 cycles
 E2 =    -0.9453618302D+00 EUMP2 =    -0.29999377969489D+03
 CCSD(T)
 CCSD(T)= -0.30002726769D+03

 The electronic state is 3-A".
 Alpha  occ. eigenvalues --  -20.76604 -20.76082 -20.73593 -20.64825  -1.79026
 Alpha  occ. eigenvalues --   -1.68556  -1.31635  -1.04774  -0.88837  -0.88085
 Alpha  occ. eigenvalues --   -0.85225  -0.76938  -0.70852  -0.55123  -0.55102
 Alpha  occ. eigenvalues --   -0.52883  -0.40765
 Alpha virt. eigenvalues --    0.09133   0.45752   0.50749   0.64189   0.64799
 Alpha virt. eigenvalues --    0.68388   0.72582   0.72907   0.74000   0.79554
 Alpha virt. eigenvalues --    0.80750   0.82933   0.86522   0.93577   0.97329

 Mulliken charges and spin densities:
               1          2
     1  O   -0.170417   0.019480
     2  O    0.073978   0.041375
     3  O    0.087965   0.894435
     4  O    0.008473   1.044710
 Sum of Mulliken charges =   0.00000   2.00000

 Dipole moment (field-independent basis, Debye):
    X=             -0.5752    Y=              1.5670    Z=              0.0000  Tot=              1.6692
 Quadrupole moment (field-independent basis, Debye-Ang):
   XX=            -20.1175   YY=            -22.0517   ZZ=            -20.2573
   XY=              1.3826   XZ=             -0.0000   YZ=             -0.0000

 \CCSD=-299.9825253\CCSD(T)=-300.0272677\RMSD=7.809e-09\PG=CS [SG(O4)]\
 Normal termination of Gaussian 16 at Tue Feb 13 12:48:51 2024.
