 Gaussian 16, Revision A.03,
 Gaussian 16:  ES64L-G16RevA.03 25-Dec-2016

 -----------------------------------------------
 #p ROCCSD(T,MaxCyc=200)/cc-pVTZ SCF(MaxCyc=200)
 -----------------------------------------------

 ---------
 O2_O2_193
 ---------
 Symbolic Z-matrix:
 Charge =  0 Multiplicity = 3

                         Standard orientation:
 ---------------------------------------------------------------------
 Center     Atomic      Atomic             Coordinates (Angstroms)
 Number     Number       Type             X           Y           Z
 ---------------------------------------------------------------------
      1          8           0        0.615183   -2.685183   -0.000000
      2          8           0       -0.205061   -1.864939   -0.000000
      3          8           0       -0.205061    1.695061    0.000000
      4          8           0       -0.205061    2.855061    0.000000
 ---------------------------------------------------------------------

 SCF Done:  E(ROHF) =  -299.252760784     A.U. after   25 cycles
 E2 =    -0.9209368204D+00 EUMP2 =    -0.30017369760393D+03
 CCSD(T)
 CCSD(T)= -0.30020053850D+03

 The electronic state is 3-A".
 Alpha  occ. eigenvalues --  -20.74000 -20.73922 -20.72929 -20.72813  -1.74496
 Alpha  occ. eigenvalues --   -1.69865  -1.17037  -1.08548  -0.83778  -0.83772
 Alpha  occ. eigenvalues --   -0.78641  -0.78123  -0.75159  -0.67393  -0.50972
 Alpha  occ. eigenvalues --   -0.50962  -0.44807
 Alpha virt. eigenvalues --    0.04966   0.38000   0.45606   0.65356   0.67892
 Alpha virt. eigenvalues --    0.69165   0.70603   0.70611   0.74630   0.78032
 Alpha virt. eigenvalues --    0.78498   0.79511   0.82723   0.85187   0.86229

 Mulliken charges and spin densities:
               1          2
     1  O   -0.000060   0.999334
     2  O    0.000288   1.000497
     3  O   -0.000650   0.000161
     4  O    0.000422   0.000008
 Sum of Mulliken charges =  -0.00000   2.00000

 Dipole moment (field-independent basis, Debye):
    X=             -0.0034    Y=             -0.0024    Z=              0.0000  Tot=              0.0042
 Quadrupole moment (field-independent basis, Debye-Ang):
   XX=            -20.8140   YY=            -20.6349   ZZ=            -18.8842
   XY=              0.3048   XZ=             -0.0000   YZ=             -0.0000

 SD=-300.1624415\CCSD(T)=-300.2005385\RMSD=5.285e-09\PG=CS [SG(O4)]\\@
 Normal termination of Gaussian 16 at Tue Feb 13 17:36:22 2024.
