 Gaussian 16, Revision A.03,
 Gaussian 16:  ES64L-G16RevA.03 25-Dec-2016

 -----------------------------------------------
 #p ROCCSD(T,MaxCyc=200)/cc-pVTZ SCF(MaxCyc=200)
 -----------------------------------------------

 --------
 O2_O2_86
 --------
 Symbolic Z-matrix:
 Charge =  0 Multiplicity = 3

                         Standard orientation:
 ---------------------------------------------------------------------
 Center     Atomic      Atomic             Coordinates (Angstroms)
 Number     Number       Type             X           Y           Z
 ---------------------------------------------------------------------
      1          8           0       -0.870000   -1.350000    0.000000
      2          8           0        0.290000   -1.350000    0.000000
      3          8           0        0.290000    0.770000    0.000000
      4          8           0        0.290000    1.930000    0.000000
 ---------------------------------------------------------------------

 SCF Done:  E(ROHF) =  -299.107773833     A.U. after   20 cycles
 E2 =    -0.1069788040D+01 EUMP2 =    -0.30017756187311D+03
 CCSD(T)
 CCSD(T)= -0.30020889229D+03

 The electronic state is 3-A'.
 Alpha  occ. eigenvalues --  -20.76356 -20.76024 -20.74956 -20.74133  -1.74282
 Alpha  occ. eigenvalues --   -1.72734  -1.15343  -1.12956  -0.85249  -0.83549
 Alpha  occ. eigenvalues --   -0.80913  -0.78094  -0.74002  -0.70415  -0.52046
 Alpha  occ. eigenvalues --   -0.50420  -0.32765
 Alpha virt. eigenvalues --   -0.08147   0.41439   0.46460   0.63155   0.68841
 Alpha virt. eigenvalues --    0.70243   0.70574   0.71468   0.73861   0.76955
 Alpha virt. eigenvalues --    0.78560   0.78576   0.85287   0.86976   0.88275

 Mulliken charges and spin densities:
               1          2
     1  O   -0.007758   0.465159
     2  O    0.039443   0.535438
     3  O   -0.020779   0.358953
     4  O   -0.010905   0.640450
 Sum of Mulliken charges =  -0.00000   2.00000

 Dipole moment (field-independent basis, Debye):
    X=              0.0709    Y=             -0.1998    Z=              0.0000  Tot=              0.2120
 Quadrupole moment (field-independent basis, Debye-Ang):
   XX=            -20.6276   YY=            -20.3318   ZZ=            -19.6680
   XY=              0.1461   XZ=              0.0000   YZ=              0.0000

 Normal termination of Gaussian 16 at Tue Feb 13 14:31:21 2024.
