 Gaussian 16, Revision A.03,
 Gaussian 16:  ES64L-G16RevA.03 25-Dec-2016

 -----------------------------------------------
 #p ROCCSD(T,MaxCyc=200)/cc-pVTZ SCF(MaxCyc=200)
 -----------------------------------------------

 --------
 O2_O2_23
 --------
 Symbolic Z-matrix:
 Charge =  0 Multiplicity = 3

                         Standard orientation:
 ---------------------------------------------------------------------
 Center     Atomic      Atomic             Coordinates (Angstroms)
 Number     Number       Type             X           Y           Z
 ---------------------------------------------------------------------
      1          8           0       -0.870000   -0.930000    0.000000
      2          8           0        0.290000   -0.930000    0.000000
      3          8           0        0.290000    0.350000    0.000000
      4          8           0        0.290000    1.510000    0.000000
 ---------------------------------------------------------------------

 SCF Done:  E(ROHF) =  -298.898016448     A.U. after   22 cycles
 E2 =    -0.9633857020D+00 EUMP2 =    -0.29986140215031D+03
 CCSD(T)
 CCSD(T)= -0.29989370230D+03

 The electronic state is 3-A".
 Alpha  occ. eigenvalues --  -20.87565 -20.79626 -20.74629 -20.57544  -1.88803
 Alpha  occ. eigenvalues --   -1.71575  -1.32565  -1.10490  -0.95532  -0.91293
 Alpha  occ. eigenvalues --   -0.86603  -0.79205  -0.75378  -0.55363  -0.51930
 Alpha  occ. eigenvalues --   -0.46660  -0.43594
 Alpha virt. eigenvalues --    0.09723   0.41229   0.46583   0.59893   0.63852
 Alpha virt. eigenvalues --    0.66844   0.69241   0.73205   0.74125   0.81208
 Alpha virt. eigenvalues --    0.82350   0.85875   0.86386   0.88662   0.98353

 Mulliken charges and spin densities:
               1          2
     1  O   -0.394393   0.195676
     2  O    0.281379   0.290353
     3  O    0.197646   0.732638
     4  O   -0.084632   0.781333
 Sum of Mulliken charges =  -0.00000   2.00000

 Dipole moment (field-independent basis, Debye):
    X=              2.1938    Y=              0.4670    Z=              0.0000  Tot=              2.2430
 Quadrupole moment (field-independent basis, Debye-Ang):
   XX=            -21.3602   YY=            -21.6684   ZZ=            -20.0453
   XY=             -2.1319   XZ=              0.0000   YZ=              0.0000

 Normal termination of Gaussian 16 at Tue Feb 13 12:29:56 2024.
