 Gaussian 16, Revision A.03,
 Gaussian 16:  ES64L-G16RevA.03 25-Dec-2016

 -----------------------------------------------
 #p ROCCSD(T,MaxCyc=200)/cc-pVTZ SCF(MaxCyc=200)
 -----------------------------------------------

 --------
 O2_O2_85
 --------
 Symbolic Z-matrix:
 Charge =  0 Multiplicity = 3

                         Standard orientation:
 ---------------------------------------------------------------------
 Center     Atomic      Atomic             Coordinates (Angstroms)
 Number     Number       Type             X           Y           Z
 ---------------------------------------------------------------------
      1          8           0        0.615183   -1.965183    0.000000
      2          8           0       -0.205061   -1.144939    0.000000
      3          8           0       -0.205061    0.975061   -0.000000
      4          8           0       -0.205061    2.135061   -0.000000
 ---------------------------------------------------------------------

 SCF Done:  E(ROHF) =  -299.093288157     A.U. after   21 cycles
 E2 =    -0.1091734345D+01 EUMP2 =    -0.30018502250239D+03
 CCSD(T)
 CCSD(T)= -0.30021585443D+03

 The electronic state is 3-A'.
 Alpha  occ. eigenvalues --  -20.76253 -20.75361 -20.74717 -20.74602  -1.73739
 Alpha  occ. eigenvalues --   -1.73069  -1.16411  -1.11644  -0.85204  -0.84037
 Alpha  occ. eigenvalues --   -0.80256  -0.75181  -0.74133  -0.73158  -0.51595
 Alpha  occ. eigenvalues --   -0.50312  -0.31198
 Alpha virt. eigenvalues --   -0.09606   0.42943   0.47506   0.63822   0.66608
 Alpha virt. eigenvalues --    0.69912   0.72115   0.72400   0.74993   0.78135
 Alpha virt. eigenvalues --    0.79228   0.79603   0.86021   0.90597   0.92171

 Mulliken charges and spin densities:
               1          2
     1  O    0.000435   0.576999
     2  O    0.010153   0.422560
     3  O    0.001506   0.382667
     4  O   -0.012094   0.617774
 Sum of Mulliken charges =  -0.00000   2.00000

 Dipole moment (field-independent basis, Debye):
    X=              0.0161    Y=             -0.0449    Z=             -0.0000  Tot=              0.0477
 Quadrupole moment (field-independent basis, Debye-Ang):
   XX=            -20.0490   YY=            -20.4982   ZZ=            -20.1967
   XY=              0.3558   XZ=             -0.0000   YZ=              0.0000

 CSD=-300.1109081\CCSD(T)=-300.2158544\RMSD=2.534e-09\PG=CS [SG(O4)]\\@
 Normal termination of Gaussian 16 at Tue Feb 13 14:29:01 2024.
