 Gaussian 16, Revision A.03,
 Gaussian 16:  ES64L-G16RevA.03 25-Dec-2016

 -----------------------------------------------
 #p ROCCSD(T,MaxCyc=200)/cc-pVTZ SCF(MaxCyc=200)
 -----------------------------------------------

 ---------
 O2_O2_233
 ---------
 Symbolic Z-matrix:
 Charge =  0 Multiplicity = 3

                         Standard orientation:
 ---------------------------------------------------------------------
 Center     Atomic      Atomic             Coordinates (Angstroms)
 Number     Number       Type             X           Y           Z
 ---------------------------------------------------------------------
      1          8           0       -0.870000   -2.330000    0.000000
      2          8           0        0.290000   -2.330000    0.000000
      3          8           0        0.290000    1.750000    0.000000
      4          8           0        0.290000    2.910000    0.000000
 ---------------------------------------------------------------------

 SCF Done:  E(ROHF) =  -299.252768115     A.U. after   32 cycles
 E2 =    -0.9207406143D+00 EUMP2 =    -0.30017350872929D+03
 CCSD(T)
 CCSD(T)= -0.30020038510D+03

 The electronic state is 3-A".
 Alpha  occ. eigenvalues --  -20.73997 -20.73920 -20.72997 -20.72881  -1.74494
 Alpha  occ. eigenvalues --   -1.69929  -1.17038  -1.08620  -0.83776  -0.83769
 Alpha  occ. eigenvalues --   -0.78706  -0.78120  -0.75241  -0.67458  -0.50971
 Alpha  occ. eigenvalues --   -0.50966  -0.44875
 Alpha virt. eigenvalues --    0.04899   0.41366   0.42814   0.66426   0.67999
 Alpha virt. eigenvalues --    0.70317   0.70531   0.72087   0.73762   0.77997
 Alpha virt. eigenvalues --    0.78980   0.79803   0.81119   0.82643   0.84676

 Mulliken charges and spin densities:
               1          2
     1  O    0.000250   1.000280
     2  O   -0.000129   0.999704
     3  O   -0.000600   0.000016
     4  O    0.000479   0.000000
 Sum of Mulliken charges =  -0.00000   2.00000

 Dipole moment (field-independent basis, Debye):
    X=             -0.0006    Y=              0.0039    Z=              0.0000  Tot=              0.0040
 Quadrupole moment (field-independent basis, Debye-Ang):
   XX=            -21.1121   YY=            -20.2939   ZZ=            -18.8838
   XY=              0.0038   XZ=              0.0000   YZ=              0.0000

 CCSD(T)=-300.2003851\RMSD=1.128e-09\PG=CS [SG(O4)]\\@
 Normal termination of Gaussian 16 at Tue Feb 13 18:25:13 2024.
