 Gaussian 16, Revision A.03,
 Gaussian 16:  ES64L-G16RevA.03 25-Dec-2016

 -----------------------------------------------
 #p ROCCSD(T,MaxCyc=200)/cc-pVTZ SCF(MaxCyc=200)
 -----------------------------------------------

 --------
 O2_O2_89
 --------
 Symbolic Z-matrix:
 Charge =  0 Multiplicity = 3

                         Standard orientation:
 ---------------------------------------------------------------------
 Center     Atomic      Atomic             Coordinates (Angstroms)
 Number     Number       Type             X           Y           Z
 ---------------------------------------------------------------------
      1          8           0       -0.870000   -1.370000    0.000000
      2          8           0        0.290000   -1.370000    0.000000
      3          8           0        0.290000    0.790000    0.000000
      4          8           0        0.290000    1.950000    0.000000
 ---------------------------------------------------------------------

 SCF Done:  E(ROHF) =  -299.107452887     A.U. after   20 cycles
 E2 =    -0.1073388162D+01 EUMP2 =    -0.30018084104935D+03
 CCSD(T)
 CCSD(T)= -0.30021225519D+03

 The electronic state is 3-A'.
 Alpha  occ. eigenvalues --  -20.76340 -20.76039 -20.75056 -20.74241  -1.74219
 Alpha  occ. eigenvalues --   -1.72811  -1.15181  -1.13043  -0.85187  -0.83632
 Alpha  occ. eigenvalues --   -0.80650  -0.78061  -0.74029  -0.70824  -0.52000
 Alpha  occ. eigenvalues --   -0.50503  -0.32509
 Alpha virt. eigenvalues --   -0.08462   0.41434   0.46292   0.63114   0.68625
 Alpha virt. eigenvalues --    0.70493   0.70574   0.71561   0.73533   0.76901
 Alpha virt. eigenvalues --    0.78286   0.78567   0.85167   0.86735   0.87599

 Mulliken charges and spin densities:
               1          2
     1  O   -0.007865   0.465060
     2  O    0.037680   0.535469
     3  O   -0.020433   0.363430
     4  O   -0.009383   0.636041
 Sum of Mulliken charges =  -0.00000   2.00000

 Dipole moment (field-independent basis, Debye):
    X=              0.0662    Y=             -0.1886    Z=              0.0000  Tot=              0.1999
 Quadrupole moment (field-independent basis, Debye-Ang):
   XX=            -20.6395   YY=            -20.2949   ZZ=            -19.6726
   XY=              0.1414   XZ=              0.0000   YZ=              0.0000

 Normal termination of Gaussian 16 at Tue Feb 13 14:37:24 2024.
