 Gaussian 16, Revision A.03,
 Gaussian 16:  ES64L-G16RevA.03 25-Dec-2016

 -----------------------------------------------
 #p ROCCSD(T,MaxCyc=200)/cc-pVTZ SCF(MaxCyc=200)
 -----------------------------------------------

 ---------
 O2_O2_268
 ---------
 Symbolic Z-matrix:
 Charge =  0 Multiplicity = 3

                         Standard orientation:
 ---------------------------------------------------------------------
 Center     Atomic      Atomic             Coordinates (Angstroms)
 Number     Number       Type             X           Y           Z
 ---------------------------------------------------------------------
      1          8           0        0.615183   -3.185183    0.000000
      2          8           0       -0.205061   -2.364939    0.000000
      3          8           0       -0.205061    2.195061   -0.000000
      4          8           0       -0.205061    3.355061   -0.000000
 ---------------------------------------------------------------------

 SCF Done:  E(ROHF) =  -299.252735634     A.U. after   25 cycles
 E2 =    -0.9206508927D+00 EUMP2 =    -0.30017338652677D+03
 CCSD(T)
 CCSD(T)= -0.30020027471D+03

 The electronic state is 3-A".
 Alpha  occ. eigenvalues --  -20.74016 -20.73939 -20.72945 -20.72829  -1.74515
 Alpha  occ. eigenvalues --   -1.69880  -1.17058  -1.08566  -0.83795  -0.83793
 Alpha  occ. eigenvalues --   -0.78656  -0.78139  -0.75186  -0.67408  -0.50990
 Alpha  occ. eigenvalues --   -0.50988  -0.44824
 Alpha virt. eigenvalues --    0.04951   0.40988   0.43639   0.67955   0.68008
 Alpha virt. eigenvalues --    0.70399   0.70561   0.71501   0.72985   0.77920
 Alpha virt. eigenvalues --    0.79258   0.79789   0.80884   0.82210   0.84716

 Mulliken charges and spin densities:
               1          2
     1  O   -0.000346   0.999605
     2  O    0.000359   1.000386
     3  O    0.000141   0.000009
     4  O   -0.000154  -0.000000
 Sum of Mulliken charges =  -0.00000   2.00000

 Dipole moment (field-independent basis, Debye):
    X=             -0.0018    Y=              0.0007    Z=              0.0000  Tot=              0.0020
 Quadrupole moment (field-independent basis, Debye-Ang):
   XX=            -20.8139   YY=            -20.6260   ZZ=            -18.8837
   XY=              0.3030   XZ=              0.0000   YZ=              0.0000

 8\CCSD=-300.1622106\CCSD(T)=-300.2002747\RMSD=8.302e-09\PG=CS [SG(O4)]
 Normal termination of Gaussian 16 at Tue Feb 13 19:05:40 2024.
