 Gaussian 16, Revision A.03,
 Gaussian 16:  ES64L-G16RevA.03 25-Dec-2016

 -----------------------------------------------
 #p ROCCSD(T,MaxCyc=200)/cc-pVTZ SCF(MaxCyc=200)
 -----------------------------------------------

 ---------
 O2_O2_230
 ---------
 Symbolic Z-matrix:
 Charge =  0 Multiplicity = 3

                         Standard orientation:
 ---------------------------------------------------------------------
 Center     Atomic      Atomic             Coordinates (Angstroms)
 Number     Number       Type             X           Y           Z
 ---------------------------------------------------------------------
      1          8           0       -0.870000   -2.310000    0.000000
      2          8           0        0.290000   -2.310000    0.000000
      3          8           0        0.290000    1.730000    0.000000
      4          8           0        0.290000    2.890000    0.000000
 ---------------------------------------------------------------------

 SCF Done:  E(ROHF) =  -299.252771527     A.U. after   32 cycles
 E2 =    -0.9207523851D+00 EUMP2 =    -0.30017352391213D+03
 CCSD(T)
 CCSD(T)= -0.30020039839D+03

 The electronic state is 3-A".
 Alpha  occ. eigenvalues --  -20.73996 -20.73920 -20.72998 -20.72882  -1.74493
 Alpha  occ. eigenvalues --   -1.69930  -1.17037  -1.08621  -0.83775  -0.83768
 Alpha  occ. eigenvalues --   -0.78706  -0.78119  -0.75242  -0.67459  -0.50970
 Alpha  occ. eigenvalues --   -0.50964  -0.44876
 Alpha virt. eigenvalues --    0.04898   0.41350   0.42764   0.66242   0.67994
 Alpha virt. eigenvalues --    0.70306   0.70534   0.72090   0.73899   0.77991
 Alpha virt. eigenvalues --    0.78934   0.79803   0.81189   0.82742   0.84679

 Mulliken charges and spin densities:
               1          2
     1  O    0.000269   1.000302
     2  O   -0.000134   0.999679
     3  O   -0.000644   0.000018
     4  O    0.000508   0.000000
 Sum of Mulliken charges =  -0.00000   2.00000

 Dipole moment (field-independent basis, Debye):
    X=             -0.0006    Y=              0.0039    Z=              0.0000  Tot=              0.0040
 Quadrupole moment (field-independent basis, Debye-Ang):
   XX=            -21.1120   YY=            -20.2932   ZZ=            -18.8838
   XY=              0.0041   XZ=              0.0000   YZ=              0.0000

 Normal termination of Gaussian 16 at Tue Feb 13 18:21:45 2024.
