 Gaussian 16, Revision A.03,
 Gaussian 16:  ES64L-G16RevA.03 25-Dec-2016

 -----------------------------------------------
 #p ROCCSD(T,MaxCyc=200)/cc-pVTZ SCF(MaxCyc=200)
 -----------------------------------------------

 ---------
 O2_O2_108
 ---------
 Symbolic Z-matrix:
 Charge =  0 Multiplicity = 3

                         Standard orientation:
 ---------------------------------------------------------------------
 Center     Atomic      Atomic             Coordinates (Angstroms)
 Number     Number       Type             X           Y           Z
 ---------------------------------------------------------------------
      1          8           0        0.000000    0.000000    2.380000
      2          8           0        0.000000    0.000000    1.220000
      3          8           0        0.000000    0.000000   -1.220000
      4          8           0        0.000000    0.000000   -2.380000
 ---------------------------------------------------------------------

 SCF Done:  E(ROHF) =  -299.059402402     A.U. after   13 cycles
 E2 =    -0.1123012228D+01 EUMP2 =    -0.30018241462973D+03
 CCSD(T)
 CCSD(T)= -0.30018546104D+03

 Unable to determine electronic state:  an orbital has unidentified symmetry.
 Alpha  occ. eigenvalues --  -20.76740 -20.76739 -20.74519 -20.74519  -1.73607
 Alpha  occ. eigenvalues --   -1.73396  -1.15132  -1.12668  -0.82567  -0.82104
 Alpha  occ. eigenvalues --   -0.79718  -0.76825  -0.75826  -0.75538  -0.49099
 Alpha  occ. eigenvalues --   -0.48029  -0.31303
 Alpha virt. eigenvalues --   -0.14113   0.41844   0.48600   0.64942   0.65373
 Alpha virt. eigenvalues --    0.69275   0.70690   0.70791   0.75872   0.76337
 Alpha virt. eigenvalues --    0.77373   0.82317   0.85143   0.86677   0.90656

 Mulliken charges and spin densities:
               1          2
     1  O   -0.032944   0.471441
     2  O    0.032944   0.528559
     3  O    0.032944   0.528559
     4  O   -0.032944   0.471441
 Sum of Mulliken charges =   0.00000   2.00000

 Dipole moment (field-independent basis, Debye):
    X=             -0.0000    Y=             -0.0000    Z=              0.0000  Tot=              0.0000
 Quadrupole moment (field-independent basis, Debye-Ang):
   XX=            -20.7488   YY=            -19.1428   ZZ=            -21.5856
   XY=              0.0000   XZ=              0.0000   YZ=              0.0000

 PMP2-0=-300.1824146\MP4SDQ=-300.074464\CCSD=-300.0780514\CCSD(T)=-300.
 Normal termination of Gaussian 16 at Tue Feb 13 15:20:26 2024.
