 Gaussian 16, Revision A.03,
 Gaussian 16:  ES64L-G16RevA.03 25-Dec-2016

 -----------------------------------------------
 #p ROCCSD(T,MaxCyc=200)/cc-pVTZ SCF(MaxCyc=200)
 -----------------------------------------------

 ---------
 O2_O2_157
 ---------
 Symbolic Z-matrix:
 Charge =  0 Multiplicity = 3

                         Standard orientation:
 ---------------------------------------------------------------------
 Center     Atomic      Atomic             Coordinates (Angstroms)
 Number     Number       Type             X           Y           Z
 ---------------------------------------------------------------------
      1          8           0        0.615183   -2.445183    0.000000
      2          8           0       -0.205061   -1.624939    0.000000
      3          8           0       -0.205061    1.455061   -0.000000
      4          8           0       -0.205061    2.615061   -0.000000
 ---------------------------------------------------------------------

 SCF Done:  E(ROHF) =  -299.252476028     A.U. after   26 cycles
 E2 =    -0.9213633385D+00 EUMP2 =    -0.30017383936694D+03
 CCSD(T)
 CCSD(T)= -0.30020062885D+03

 The electronic state is 3-A".
 Alpha  occ. eigenvalues --  -20.73958 -20.73877 -20.72908 -20.72792  -1.74460
 Alpha  occ. eigenvalues --   -1.69850  -1.17012  -1.08537  -0.83751  -0.83742
 Alpha  occ. eigenvalues --   -0.78625  -0.78135  -0.75091  -0.67379  -0.50935
 Alpha  occ. eigenvalues --   -0.50924  -0.44789
 Alpha virt. eigenvalues --    0.04975   0.38443   0.46349   0.64503   0.67305
 Alpha virt. eigenvalues --    0.68207   0.70783   0.71196   0.75072   0.77893
 Alpha virt. eigenvalues --    0.78736   0.79002   0.84099   0.86095   0.86826

 Mulliken charges and spin densities:
               1          2
     1  O   -0.000557   0.998627
     2  O    0.000726   1.001165
     3  O   -0.000366   0.000137
     4  O    0.000196   0.000071
 Sum of Mulliken charges =  -0.00000   2.00000

 Dipole moment (field-independent basis, Debye):
    X=             -0.0067    Y=              0.0018    Z=             -0.0000  Tot=              0.0070
 Quadrupole moment (field-independent basis, Debye-Ang):
   XX=            -20.8159   YY=            -20.6711   ZZ=            -18.8847
   XY=              0.3099   XZ=             -0.0000   YZ=              0.0000

 CCSD=-300.1624801\CCSD(T)=-300.2006289\RMSD=2.642e-09\PG=CS [SG(O4)]\\
 Normal termination of Gaussian 16 at Tue Feb 13 16:52:40 2024.
