 Gaussian 16, Revision A.03,
 Gaussian 16:  ES64L-G16RevA.03 25-Dec-2016

 -----------------------------------------------
 #p ROCCSD(T,MaxCyc=200)/cc-pVTZ SCF(MaxCyc=200)
 -----------------------------------------------

 --------
 O2_O2_71
 --------
 Symbolic Z-matrix:
 Charge =  0 Multiplicity = 3

                         Standard orientation:
 ---------------------------------------------------------------------
 Center     Atomic      Atomic             Coordinates (Angstroms)
 Number     Number       Type             X           Y           Z
 ---------------------------------------------------------------------
      1          8           0       -0.870000   -1.250000    0.000000
      2          8           0        0.290000   -1.250000    0.000000
      3          8           0        0.290000    0.670000    0.000000
      4          8           0        0.290000    1.830000    0.000000
 ---------------------------------------------------------------------

 SCF Done:  E(ROHF) =  -299.102016145     A.U. after   21 cycles
 E2 =    -0.1052402006D+01 EUMP2 =    -0.30015441815084D+03
 CCSD(T)
 CCSD(T)= -0.30018409889D+03

 The electronic state is 3-A'.
 Alpha  occ. eigenvalues --  -20.76471 -20.75950 -20.74142 -20.73341  -1.74796
 Alpha  occ. eigenvalues --   -1.72146  -1.16567  -1.12359  -0.85699  -0.82952
 Alpha  occ. eigenvalues --   -0.82417  -0.78372  -0.73770  -0.67726  -0.52404
 Alpha  occ. eigenvalues --   -0.49798  -0.34186
 Alpha virt. eigenvalues --   -0.06305   0.41379   0.47306   0.63630   0.68053
 Alpha virt. eigenvalues --    0.69903   0.70851   0.71077   0.75420   0.77073
 Alpha virt. eigenvalues --    0.78590   0.80471   0.85825   0.87576   0.92682

 Mulliken charges and spin densities:
               1          2
     1  O   -0.002603   0.479672
     2  O    0.049044   0.521425
     3  O   -0.027440   0.334507
     4  O   -0.019001   0.664397
 Sum of Mulliken charges =  -0.00000   2.00000

 Dipole moment (field-independent basis, Debye):
    X=              0.0867    Y=             -0.2902    Z=              0.0000  Tot=              0.3029
 Quadrupole moment (field-independent basis, Debye-Ang):
   XX=            -20.5259   YY=            -20.5930   ZZ=            -19.6311
   XY=              0.1703   XZ=              0.0000   YZ=              0.0000

 Normal termination of Gaussian 16 at Tue Feb 13 13:59:58 2024.
