 Gaussian 16, Revision A.03,
 Gaussian 16:  ES64L-G16RevA.03 25-Dec-2016

 -----------------------------------------------
 #p ROCCSD(T,MaxCyc=200)/cc-pVTZ SCF(MaxCyc=200)
 -----------------------------------------------

 --------
 O2_O2_20
 --------
 Symbolic Z-matrix:
 Charge =  0 Multiplicity = 3

                         Standard orientation:
 ---------------------------------------------------------------------
 Center     Atomic      Atomic             Coordinates (Angstroms)
 Number     Number       Type             X           Y           Z
 ---------------------------------------------------------------------
      1          8           0       -0.870000   -0.910000    0.000000
      2          8           0        0.290000   -0.910000    0.000000
      3          8           0        0.290000    0.330000    0.000000
      4          8           0        0.290000    1.490000    0.000000
 ---------------------------------------------------------------------

 SCF Done:  E(ROHF) =  -298.878771254     A.U. after   23 cycles
 E2 =    -0.9588666612D+00 EUMP2 =    -0.29983763791550D+03
 CCSD(T)
 CCSD(T)= -0.29986759195D+03

 The electronic state is 3-A".
 Alpha  occ. eigenvalues --  -20.86406 -20.83715 -20.75394 -20.55695  -1.92127
 Alpha  occ. eigenvalues --   -1.72217  -1.34391  -1.10753  -0.98108  -0.92984
 Alpha  occ. eigenvalues --   -0.87581  -0.79126  -0.74543  -0.56183  -0.53244
 Alpha  occ. eigenvalues --   -0.46057  -0.42404
 Alpha virt. eigenvalues --    0.11560   0.41343   0.46333   0.59590   0.63101
 Alpha virt. eigenvalues --    0.66459   0.69335   0.73029   0.73410   0.81389
 Alpha virt. eigenvalues --    0.82990   0.85243   0.86516   0.88940   0.98048

 Mulliken charges and spin densities:
               1          2
     1  O   -0.452818   0.179393
     2  O    0.259187   0.267522
     3  O    0.294378   0.823278
     4  O   -0.100746   0.729807
 Sum of Mulliken charges =  -0.00000   2.00000

 Dipole moment (field-independent basis, Debye):
    X=              2.4356    Y=              0.7456    Z=              0.0000  Tot=              2.5471
 Quadrupole moment (field-independent basis, Debye-Ang):
   XX=            -21.6133   YY=            -21.8769   ZZ=            -19.9812
   XY=             -2.2097   XZ=              0.0000   YZ=              0.0000

 Normal termination of Gaussian 16 at Tue Feb 13 12:24:40 2024.
