 Gaussian 16, Revision A.03,
 Gaussian 16:  ES64L-G16RevA.03 25-Dec-2016

 -----------------------------------------------
 #p ROCCSD(T,MaxCyc=200)/cc-pVTZ SCF(MaxCyc=200)
 -----------------------------------------------

 ---------
 O2_O2_266
 ---------
 Symbolic Z-matrix:
 Charge =  0 Multiplicity = 3

                         Standard orientation:
 ---------------------------------------------------------------------
 Center     Atomic      Atomic             Coordinates (Angstroms)
 Number     Number       Type             X           Y           Z
 ---------------------------------------------------------------------
      1          8           0       -0.870000   -2.550000    0.000000
      2          8           0        0.290000   -2.550000    0.000000
      3          8           0        0.290000    1.970000    0.000000
      4          8           0        0.290000    3.130000    0.000000
 ---------------------------------------------------------------------

 SCF Done:  E(ROHF) =  -299.252740239     A.U. after   28 cycles
 E2 =    -0.9206575468D+00 EUMP2 =    -0.30017339778623D+03
 CCSD(T)
 CCSD(T)= -0.30020028879D+03

 The electronic state is 3-A".
 Alpha  occ. eigenvalues --  -20.74005 -20.73929 -20.72988 -20.72872  -1.74504
 Alpha  occ. eigenvalues --   -1.69921  -1.17049  -1.08611  -0.83785  -0.83782
 Alpha  occ. eigenvalues --   -0.78698  -0.78130  -0.75232  -0.67450  -0.50980
 Alpha  occ. eigenvalues --   -0.50978  -0.44867
 Alpha virt. eigenvalues --    0.04908   0.41432   0.43152   0.67709   0.68015
 Alpha virt. eigenvalues --    0.70361   0.70522   0.72071   0.72756   0.78018
 Alpha virt. eigenvalues --    0.79427   0.79798   0.80371   0.82212   0.84670

 Mulliken charges and spin densities:
               1          2
     1  O    0.000092   1.000096
     2  O   -0.000066   0.999901
     3  O   -0.000323   0.000003
     4  O    0.000297  -0.000000
 Sum of Mulliken charges =  -0.00000   2.00000

 Dipole moment (field-independent basis, Debye):
    X=             -0.0000    Y=              0.0037    Z=              0.0000  Tot=              0.0037
 Quadrupole moment (field-independent basis, Debye-Ang):
   XX=            -21.1128   YY=            -20.2998   ZZ=            -18.8836
   XY=              0.0019   XZ=              0.0000   YZ=              0.0000

 Normal termination of Gaussian 16 at Tue Feb 13 19:04:01 2024.
