 Gaussian 16, Revision A.03,
 Gaussian 16:  ES64L-G16RevA.03 25-Dec-2016

 -----------------------------------------------
 #p ROCCSD(T,MaxCyc=200)/cc-pVTZ SCF(MaxCyc=200)
 -----------------------------------------------

 ---------
 O2_O2_182
 ---------
 Symbolic Z-matrix:
 Charge =  0 Multiplicity = 3

                         Standard orientation:
 ---------------------------------------------------------------------
 Center     Atomic      Atomic             Coordinates (Angstroms)
 Number     Number       Type             X           Y           Z
 ---------------------------------------------------------------------
      1          8           0       -0.870000   -1.990000    0.000000
      2          8           0        0.290000   -1.990000    0.000000
      3          8           0        0.290000    1.410000    0.000000
      4          8           0        0.290000    2.570000    0.000000
 ---------------------------------------------------------------------

 SCF Done:  E(ROHF) =  -299.252855879     A.U. after   26 cycles
 E2 =    -0.9211178206D+00 EUMP2 =    -0.30017397369939D+03
 CCSD(T)
 CCSD(T)= -0.30020078090D+03

 The electronic state is 3-A".
 Alpha  occ. eigenvalues --  -20.74356 -20.74209 -20.72877 -20.72760  -1.74807
 Alpha  occ. eigenvalues --   -1.69802  -1.17377  -1.08492  -0.84088  -0.84087
 Alpha  occ. eigenvalues --   -0.78582  -0.78487  -0.75112  -0.67308  -0.51291
 Alpha  occ. eigenvalues --   -0.51291  -0.44752
 Alpha virt. eigenvalues --    0.05014   0.39435   0.43502   0.63455   0.67379
 Alpha virt. eigenvalues --    0.67451   0.70518   0.72522   0.75407   0.77322
 Alpha virt. eigenvalues --    0.79692   0.80335   0.81127   0.82510   0.86707

 Mulliken charges and spin densities:
               1          2
     1  O   -0.000389   0.000027
     2  O    0.001018   0.000039
     3  O   -0.005973   0.994867
     4  O    0.005344   1.005067
 Sum of Mulliken charges =  -0.00000   2.00000

 Dipole moment (field-independent basis, Debye):
    X=              0.0058    Y=              0.0342    Z=              0.0000  Tot=              0.0347
 Quadrupole moment (field-independent basis, Debye-Ang):
   XX=            -20.3055   YY=            -19.3504   ZZ=            -20.5120
   XY=              0.0095   XZ=              0.0000   YZ=              0.0000

 Normal termination of Gaussian 16 at Tue Feb 13 17:23:43 2024.
