 Gaussian 16, Revision A.03,
 Gaussian 16:  ES64L-G16RevA.03 25-Dec-2016

 -----------------------------------------------
 #p ROCCSD(T,MaxCyc=200)/cc-pVTZ SCF(MaxCyc=200)
 -----------------------------------------------

 --------
 O2_O2_41
 --------
 Symbolic Z-matrix:
 Charge =  0 Multiplicity = 3

                         Standard orientation:
 ---------------------------------------------------------------------
 Center     Atomic      Atomic             Coordinates (Angstroms)
 Number     Number       Type             X           Y           Z
 ---------------------------------------------------------------------
      1          8           0       -0.870000   -1.050000    0.000000
      2          8           0        0.290000   -1.050000    0.000000
      3          8           0        0.290000    0.470000    0.000000
      4          8           0        0.290000    1.630000    0.000000
 ---------------------------------------------------------------------

 SCF Done:  E(ROHF) =  -299.063474260     A.U. after   24 cycles
 E2 =    -0.9504492825D+00 EUMP2 =    -0.30001392354274D+03
 CCSD(T)
 CCSD(T)= -0.30004002739D+03

 The electronic state is 3-A".
 Alpha  occ. eigenvalues --  -20.77327 -20.75610 -20.74517 -20.63812  -1.79504
 Alpha  occ. eigenvalues --   -1.69429  -1.25653  -1.07259  -0.88615  -0.88351
 Alpha  occ. eigenvalues --   -0.85779  -0.77111  -0.72979  -0.55622  -0.54198
 Alpha  occ. eigenvalues --   -0.51956  -0.41893
 Alpha virt. eigenvalues --    0.07543   0.43684   0.45697   0.63893   0.64831
 Alpha virt. eigenvalues --    0.67082   0.71031   0.73325   0.73773   0.80709
 Alpha virt. eigenvalues --    0.83071   0.83882   0.86003   0.88021   0.99669

 Mulliken charges and spin densities:
               1          2
     1  O   -0.188207   0.001071
     2  O    0.099495   0.032302
     3  O    0.069909   0.909190
     4  O    0.018803   1.057437
 Sum of Mulliken charges =   0.00000   2.00000

 Dipole moment (field-independent basis, Debye):
    X=              1.0826    Y=              1.0460    Z=              0.0000  Tot=              1.5053
 Quadrupole moment (field-independent basis, Debye-Ang):
   XX=            -20.9049   YY=            -20.1547   ZZ=            -20.2761
   XY=             -0.8969   XZ=              0.0000   YZ=              0.0000

 Normal termination of Gaussian 16 at Tue Feb 13 13:01:21 2024.
