 Gaussian 16, Revision A.03,
 Gaussian 16:  ES64L-G16RevA.03 25-Dec-2016

 -----------------------------------------------
 #p ROCCSD(T,MaxCyc=200)/cc-pVTZ SCF(MaxCyc=200)
 -----------------------------------------------

 --------
 O2_O2_31
 --------
 Symbolic Z-matrix:
 Charge =  0 Multiplicity = 3

                         Standard orientation:
 ---------------------------------------------------------------------
 Center     Atomic      Atomic             Coordinates (Angstroms)
 Number     Number       Type             X           Y           Z
 ---------------------------------------------------------------------
      1          8           0        0.615183   -1.605183   -0.000000
      2          8           0       -0.205061   -0.784939   -0.000000
      3          8           0       -0.205061    0.615061    0.000000
      4          8           0       -0.205061    1.775061    0.000000
 ---------------------------------------------------------------------

 SCF Done:  E(ROHF) =  -299.022869175     A.U. after   23 cycles
 E2 =    -0.9471260747D+00 EUMP2 =    -0.29996999524938D+03
 CCSD(T)
 CCSD(T)= -0.30000652904D+03

 The electronic state is 3-A".
 Alpha  occ. eigenvalues --  -20.77187 -20.77083 -20.74358 -20.63486  -1.80114
 Alpha  occ. eigenvalues --   -1.68685  -1.33594  -1.04640  -0.89972  -0.89067
 Alpha  occ. eigenvalues --   -0.85300  -0.76997  -0.71248  -0.55606  -0.54412
 Alpha  occ. eigenvalues --   -0.52397  -0.40332
 Alpha virt. eigenvalues --    0.09547   0.45713   0.51162   0.63924   0.64428
 Alpha virt. eigenvalues --    0.67749   0.71928   0.73012   0.73967   0.79203
 Alpha virt. eigenvalues --    0.81267   0.83359   0.86919   0.93321   0.97265

 Mulliken charges and spin densities:
               1          2
     1  O   -0.203708   0.025077
     2  O    0.085629   0.057578
     3  O    0.108936   0.881919
     4  O    0.009142   1.035426
 Sum of Mulliken charges =  -0.00000   2.00000

 Dipole moment (field-independent basis, Debye):
    X=             -0.6683    Y=              1.8300    Z=             -0.0000  Tot=              1.9482
 Quadrupole moment (field-independent basis, Debye-Ang):
   XX=            -20.2170   YY=            -22.3466   ZZ=            -20.2215
   XY=              1.4899   XZ=             -0.0000   YZ=             -0.0000

 \CCSD=-299.9604086\CCSD(T)=-300.006529\RMSD=2.448e-09\PG=CS [SG(O4)]\\
 Normal termination of Gaussian 16 at Tue Feb 13 12:43:37 2024.
