 Gaussian 16, Revision A.03,
 Gaussian 16:  ES64L-G16RevA.03 25-Dec-2016

 -----------------------------------------------
 #p ROCCSD(T,MaxCyc=200)/cc-pVTZ SCF(MaxCyc=200)
 -----------------------------------------------

 --------
 O2_O2_25
 --------
 Symbolic Z-matrix:
 Charge =  0 Multiplicity = 3

                         Standard orientation:
 ---------------------------------------------------------------------
 Center     Atomic      Atomic             Coordinates (Angstroms)
 Number     Number       Type             X           Y           Z
 ---------------------------------------------------------------------
      1          8           0        0.615183   -1.565183    0.000000
      2          8           0       -0.205061   -0.744939    0.000000
      3          8           0       -0.205061    0.575061   -0.000000
      4          8           0       -0.205061    1.735061   -0.000000
 ---------------------------------------------------------------------

 SCF Done:  E(ROHF) =  -298.965628235     A.U. after   23 cycles
 E2 =    -0.9693184127D+00 EUMP2 =    -0.29993494664731D+03
 CCSD(T)
 CCSD(T)= -0.29996475851D+03

 The electronic state is 3-A".
 Alpha  occ. eigenvalues --  -20.86111 -20.74616 -20.72851 -20.65762  -1.81315
 Alpha  occ. eigenvalues --   -1.71615  -1.37676  -1.03961  -0.91495  -0.88674
 Alpha  occ. eigenvalues --   -0.86088  -0.79575  -0.76325  -0.53419  -0.52341
 Alpha  occ. eigenvalues --   -0.51355  -0.43041
 Alpha virt. eigenvalues --    0.07867   0.45873   0.51149   0.64430   0.64496
 Alpha virt. eigenvalues --    0.65563   0.69740   0.73301   0.74408   0.79445
 Alpha virt. eigenvalues --    0.81639   0.82737   0.85573   0.92208   0.97157

 Mulliken charges and spin densities:
               1          2
     1  O   -0.232431   0.233960
     2  O    0.263824   0.340850
     3  O    0.023091   0.561877
     4  O   -0.054484   0.863313
 Sum of Mulliken charges =  -0.00000   2.00000

 Dipole moment (field-independent basis, Debye):
    X=             -0.5809    Y=              0.6539    Z=             -0.0000  Tot=              0.8746
 Quadrupole moment (field-independent basis, Debye-Ang):
   XX=            -20.3235   YY=            -23.4021   ZZ=            -20.1538
   XY=              1.5330   XZ=             -0.0000   YZ=              0.0000

 \CCSD=-299.9136366\CCSD(T)=-299.9647585\RMSD=2.742e-09\PG=CS [SG(O4)]\
 Normal termination of Gaussian 16 at Tue Feb 13 12:33:04 2024.
