 Gaussian 16, Revision A.03,
 Gaussian 16:  ES64L-G16RevA.03 25-Dec-2016

 -----------------------------------------------
 #p ROCCSD(T,MaxCyc=200)/cc-pVTZ SCF(MaxCyc=200)
 -----------------------------------------------

 --------
 O2_O2_95
 --------
 Symbolic Z-matrix:
 Charge =  0 Multiplicity = 3

                         Standard orientation:
 ---------------------------------------------------------------------
 Center     Atomic      Atomic             Coordinates (Angstroms)
 Number     Number       Type             X           Y           Z
 ---------------------------------------------------------------------
      1          8           0       -0.870000   -1.410000    0.000000
      2          8           0        0.290000   -1.410000    0.000000
      3          8           0        0.290000    0.830000    0.000000
      4          8           0        0.290000    1.990000    0.000000
 ---------------------------------------------------------------------

 SCF Done:  E(ROHF) =  -299.105922572     A.U. after   20 cycles
 E2 =    -0.1080699055D+01 EUMP2 =    -0.30018662162710D+03
 CCSD(T)
 CCSD(T)= -0.30021793286D+03

 The electronic state is 3-A'.
 Alpha  occ. eigenvalues --  -20.76304 -20.76058 -20.75215 -20.74425  -1.74112
 Alpha  occ. eigenvalues --   -1.72939  -1.14914  -1.13189  -0.85079  -0.83771
 Alpha  occ. eigenvalues --   -0.80171  -0.78003  -0.74072  -0.71534  -0.51920
 Alpha  occ. eigenvalues --   -0.50642  -0.32025
 Alpha virt. eigenvalues --   -0.09047   0.41413   0.45947   0.63089   0.68192
 Alpha virt. eigenvalues --    0.70343   0.71047   0.71533   0.73133   0.76738
 Alpha virt. eigenvalues --    0.77904   0.78548   0.84907   0.85573   0.87089

 Mulliken charges and spin densities:
               1          2
     1  O   -0.007739   0.466216
     2  O    0.034338   0.534200
     3  O   -0.020238   0.371962
     4  O   -0.006360   0.627621
 Sum of Mulliken charges =  -0.00000   2.00000

 Dipole moment (field-independent basis, Debye):
    X=              0.0569    Y=             -0.1698    Z=              0.0000  Tot=              0.1790
 Quadrupole moment (field-independent basis, Debye-Ang):
   XX=            -20.6575   YY=            -20.2343   ZZ=            -19.6798
   XY=              0.1319   XZ=              0.0000   YZ=              0.0000

 Normal termination of Gaussian 16 at Tue Feb 13 14:51:03 2024.
