 Gaussian 16, Revision A.03,
 Gaussian 16:  ES64L-G16RevA.03 25-Dec-2016

 -----------------------------------------------
 #p ROCCSD(T,MaxCyc=200)/cc-pVTZ SCF(MaxCyc=200)
 -----------------------------------------------

 ---------
 O2_O2_299
 ---------
 Symbolic Z-matrix:
 Charge =  0 Multiplicity = 3

                         Standard orientation:
 ---------------------------------------------------------------------
 Center     Atomic      Atomic             Coordinates (Angstroms)
 Number     Number       Type             X           Y           Z
 ---------------------------------------------------------------------
      1          8           0       -0.870000   -2.770000    0.000000
      2          8           0        0.290000   -2.770000    0.000000
      3          8           0        0.290000    2.190000    0.000000
      4          8           0        0.290000    3.350000    0.000000
 ---------------------------------------------------------------------

 SCF Done:  E(ROHF) =  -299.252730920     A.U. after   34 cycles
 E2 =    -0.9206223634D+00 EUMP2 =    -0.30017335328307D+03
 CCSD(T)
 CCSD(T)= -0.30020025074D+03

 The electronic state is 3-A".
 Alpha  occ. eigenvalues --  -20.74014 -20.73938 -20.72982 -20.72866  -1.74513
 Alpha  occ. eigenvalues --   -1.69915  -1.17058  -1.08604  -0.83794  -0.83792
 Alpha  occ. eigenvalues --   -0.78692  -0.78139  -0.75226  -0.67444  -0.50989
 Alpha  occ. eigenvalues --   -0.50987  -0.44861
 Alpha virt. eigenvalues --    0.04914   0.41433   0.43231   0.67986   0.68010
 Alpha virt. eigenvalues --    0.70368   0.70527   0.72063   0.72532   0.78013
 Alpha virt. eigenvalues --    0.79688   0.79791   0.80015   0.82174   0.84676

 Mulliken charges and spin densities:
               1          2
     1  O    0.000027   1.000026
     2  O   -0.000024   0.999973
     3  O   -0.000218   0.000000
     4  O    0.000215  -0.000000
 Sum of Mulliken charges =  -0.00000   2.00000

 Dipole moment (field-independent basis, Debye):
    X=              0.0002    Y=              0.0030    Z=              0.0000  Tot=              0.0030
 Quadrupole moment (field-independent basis, Debye-Ang):
   XX=            -21.1132   YY=            -20.3021   ZZ=            -18.8835
   XY=              0.0009   XZ=              0.0000   YZ=              0.0000

 CCSD(T)=-300.2002507\RMSD=3.064e-09\PG=CS [SG(O4)]\\@
 Normal termination of Gaussian 16 at Tue Feb 13 19:34:31 2024.
