 Gaussian 16, Revision A.03,
 Gaussian 16:  ES64L-G16RevA.03 25-Dec-2016

 -----------------------------------------------
 #p ROCCSD(T,MaxCyc=200)/cc-pVTZ SCF(MaxCyc=200)
 -----------------------------------------------

 ---------
 O2_O2_178
 ---------
 Symbolic Z-matrix:
 Charge =  0 Multiplicity = 3

                         Standard orientation:
 ---------------------------------------------------------------------
 Center     Atomic      Atomic             Coordinates (Angstroms)
 Number     Number       Type             X           Y           Z
 ---------------------------------------------------------------------
      1          8           0        0.615183   -2.585183    0.000000
      2          8           0       -0.205061   -1.764939    0.000000
      3          8           0       -0.205061    1.595061   -0.000000
      4          8           0       -0.205061    2.755061   -0.000000
 ---------------------------------------------------------------------

 SCF Done:  E(ROHF) =  -299.252710407     A.U. after   25 cycles
 E2 =    -0.9210750532D+00 EUMP2 =    -0.30017378546039D+03
 CCSD(T)
 CCSD(T)= -0.30020060903D+03

 The electronic state is 3-A".
 Alpha  occ. eigenvalues --  -20.73989 -20.73909 -20.72923 -20.72807  -1.74485
 Alpha  occ. eigenvalues --   -1.69860  -1.17028  -1.08543  -0.83767  -0.83764
 Alpha  occ. eigenvalues --   -0.78635  -0.78121  -0.75143  -0.67388  -0.50961
 Alpha  occ. eigenvalues --   -0.50951  -0.44801
 Alpha virt. eigenvalues --    0.04970   0.37837   0.45933   0.64704   0.67739
 Alpha virt. eigenvalues --    0.68839   0.70649   0.70791   0.74840   0.78131
 Alpha virt. eigenvalues --    0.78474   0.79250   0.83183   0.85665   0.86214

 Mulliken charges and spin densities:
               1          2
     1  O   -0.000110   0.999119
     2  O    0.000356   1.000676
     3  O   -0.000844   0.000184
     4  O    0.000599   0.000022
 Sum of Mulliken charges =  -0.00000   2.00000

 Dipole moment (field-independent basis, Debye):
    X=             -0.0045    Y=             -0.0017    Z=             -0.0000  Tot=              0.0048
 Quadrupole moment (field-independent basis, Debye-Ang):
   XX=            -20.8144   YY=            -20.6450   ZZ=            -18.8843
   XY=              0.3064   XZ=             -0.0000   YZ=              0.0000

 6\CCSD=-300.1624953\CCSD(T)=-300.200609\RMSD=2.894e-09\PG=CS [SG(O4)]\
 Normal termination of Gaussian 16 at Tue Feb 13 17:18:24 2024.
