 Gaussian 16, Revision A.03,
 Gaussian 16:  ES64L-G16RevA.03 25-Dec-2016

 -----------------------------------------------
 #p ROCCSD(T,MaxCyc=200)/cc-pVTZ SCF(MaxCyc=200)
 -----------------------------------------------

 ---------
 O2_O2_134
 ---------
 Symbolic Z-matrix:
 Charge =  0 Multiplicity = 3

                         Standard orientation:
 ---------------------------------------------------------------------
 Center     Atomic      Atomic             Coordinates (Angstroms)
 Number     Number       Type             X           Y           Z
 ---------------------------------------------------------------------
      1          8           0       -0.870000   -1.670000    0.000000
      2          8           0        0.290000   -1.670000    0.000000
      3          8           0        0.290000    1.090000    0.000000
      4          8           0        0.290000    2.250000    0.000000
 ---------------------------------------------------------------------

 SCF Done:  E(ROHF) =  -299.085496687     A.U. after   21 cycles
 E2 =    -0.1130011810D+01 EUMP2 =    -0.30021550849642D+03
 CCSD(T)
 CCSD(T)= -0.30023750011D+03

 The electronic state is 3-A'.
 Alpha  occ. eigenvalues --  -20.75984 -20.75877 -20.75508 -20.74991  -1.73719
 Alpha  occ. eigenvalues --   -1.73258  -1.14132  -1.13602  -0.84641  -0.84145
 Alpha  occ. eigenvalues --   -0.78418  -0.77693  -0.74161  -0.73804  -0.51572
 Alpha  occ. eigenvalues --   -0.51024  -0.29594
 Alpha virt. eigenvalues --   -0.11799   0.40918   0.43396   0.64364   0.64391
 Alpha virt. eigenvalues --    0.68299   0.69532   0.72085   0.75703   0.76507
 Alpha virt. eigenvalues --    0.78218   0.78539   0.80214   0.82675   0.86872

 Mulliken charges and spin densities:
               1          2
     1  O   -0.004297   0.485774
     2  O    0.017235   0.514315
     3  O   -0.018861   0.414736
     4  O    0.005923   0.585175
 Sum of Mulliken charges =  -0.00000   2.00000

 Dipole moment (field-independent basis, Debye):
    X=              0.0124    Y=             -0.0980    Z=              0.0000  Tot=              0.0988
 Quadrupole moment (field-independent basis, Debye-Ang):
   XX=            -20.6711   YY=            -20.1371   ZZ=            -19.6937
   XY=              0.0706   XZ=              0.0000   YZ=              0.0000

 Normal termination of Gaussian 16 at Tue Feb 13 16:22:17 2024.
