 Gaussian 16, Revision A.03,
 Gaussian 16:  ES64L-G16RevA.03 25-Dec-2016

 -----------------------------------------------
 #p ROCCSD(T,MaxCyc=200)/cc-pVTZ SCF(MaxCyc=200)
 -----------------------------------------------

 ---------
 O2_O2_209
 ---------
 Symbolic Z-matrix:
 Charge =  0 Multiplicity = 3

                         Standard orientation:
 ---------------------------------------------------------------------
 Center     Atomic      Atomic             Coordinates (Angstroms)
 Number     Number       Type             X           Y           Z
 ---------------------------------------------------------------------
      1          8           0       -0.870000   -2.170000    0.000000
      2          8           0        0.290000   -2.170000    0.000000
      3          8           0        0.290000    1.590000    0.000000
      4          8           0        0.290000    2.750000    0.000000
 ---------------------------------------------------------------------

 SCF Done:  E(ROHF) =  -299.252862622     A.U. after   59 cycles
 E2 =    -0.9208372777D+00 EUMP2 =    -0.30017369990013D+03
 CCSD(T)
 CCSD(T)= -0.30020055491D+03

 The electronic state is 3-A".
 Alpha  occ. eigenvalues --  -20.74282 -20.74163 -20.72899 -20.72783  -1.74751
 Alpha  occ. eigenvalues --   -1.69827  -1.17311  -1.08515  -0.84031  -0.84031
 Alpha  occ. eigenvalues --   -0.78605  -0.78404  -0.75138  -0.67344  -0.51233
 Alpha  occ. eigenvalues --   -0.51232  -0.44775
 Alpha virt. eigenvalues --    0.04998   0.40129   0.43415   0.65530   0.67715
 Alpha virt. eigenvalues --    0.67741   0.70462   0.72571   0.74793   0.78258
 Alpha virt. eigenvalues --    0.79601   0.80135   0.80409   0.82309   0.86073

 Mulliken charges and spin densities:
               1          2
     1  O   -0.000214   0.000008
     2  O    0.000583   0.000009
     3  O   -0.003999   0.996251
     4  O    0.003630   1.003732
 Sum of Mulliken charges =  -0.00000   2.00000

 Dipole moment (field-independent basis, Debye):
    X=              0.0034    Y=              0.0244    Z=              0.0000  Tot=              0.0246
 Quadrupole moment (field-independent basis, Debye-Ang):
   XX=            -20.3053   YY=            -19.3721   ZZ=            -20.5126
   XY=              0.0079   XZ=              0.0000   YZ=              0.0000

 CCSD(T)=-300.2005549\RMSD=2.012e-09\PG=CS [SG(O4)]\\@
 Normal termination of Gaussian 16 at Tue Feb 13 17:55:58 2024.
