 Gaussian 16, Revision A.03,
 Gaussian 16:  ES64L-G16RevA.03 25-Dec-2016

 -----------------------------------------------
 #p ROCCSD(T,MaxCyc=200)/cc-pVTZ SCF(MaxCyc=200)
 -----------------------------------------------

 ---------
 O2_O2_191
 ---------
 Symbolic Z-matrix:
 Charge =  0 Multiplicity = 3

                         Standard orientation:
 ---------------------------------------------------------------------
 Center     Atomic      Atomic             Coordinates (Angstroms)
 Number     Number       Type             X           Y           Z
 ---------------------------------------------------------------------
      1          8           0       -0.870000   -2.050000    0.000000
      2          8           0        0.290000   -2.050000    0.000000
      3          8           0        0.290000    1.470000    0.000000
      4          8           0        0.290000    2.630000    0.000000
 ---------------------------------------------------------------------

 SCF Done:  E(ROHF) =  -299.252873999     A.U. after   28 cycles
 E2 =    -0.9209983194D+00 EUMP2 =    -0.30017387231872D+03
 CCSD(T)
 CCSD(T)= -0.30020069974D+03

 The electronic state is 3-A".
 Alpha  occ. eigenvalues --  -20.74328 -20.74193 -20.72887 -20.72771  -1.74786
 Alpha  occ. eigenvalues --   -1.69813  -1.17352  -1.08502  -0.84067  -0.84066
 Alpha  occ. eigenvalues --   -0.78592  -0.78454  -0.75123  -0.67323  -0.51269
 Alpha  occ. eigenvalues --   -0.51269  -0.44762
 Alpha virt. eigenvalues --    0.05007   0.39611   0.43471   0.64023   0.67534
 Alpha virt. eigenvalues --    0.67576   0.70493   0.72547   0.75265   0.77647
 Alpha virt. eigenvalues --    0.79642   0.80277   0.81041   0.82416   0.86651

 Mulliken charges and spin densities:
               1          2
     1  O   -0.000323   0.000019
     2  O    0.000877   0.000025
     3  O   -0.005251   0.995400
     4  O    0.004697   1.004557
 Sum of Mulliken charges =  -0.00000   2.00000

 Dipole moment (field-independent basis, Debye):
    X=              0.0047    Y=              0.0299    Z=              0.0000  Tot=              0.0303
 Quadrupole moment (field-independent basis, Debye-Ang):
   XX=            -20.3053   YY=            -19.3564   ZZ=            -20.5122
   XY=              0.0091   XZ=              0.0000   YZ=              0.0000

 Normal termination of Gaussian 16 at Tue Feb 13 17:34:31 2024.
