 Gaussian 16, Revision A.03,
 Gaussian 16:  ES64L-G16RevA.03 25-Dec-2016

 -----------------------------------------------
 #p ROCCSD(T,MaxCyc=200)/cc-pVTZ SCF(MaxCyc=200)
 -----------------------------------------------

 ---------
 O2_O2_226
 ---------
 Symbolic Z-matrix:
 Charge =  0 Multiplicity = 3

                         Standard orientation:
 ---------------------------------------------------------------------
 Center     Atomic      Atomic             Coordinates (Angstroms)
 Number     Number       Type             X           Y           Z
 ---------------------------------------------------------------------
      1          8           0        0.615183   -2.905183   -0.000000
      2          8           0       -0.205061   -2.084939   -0.000000
      3          8           0       -0.205061    1.915061    0.000000
      4          8           0       -0.205061    3.075061    0.000000
 ---------------------------------------------------------------------

 SCF Done:  E(ROHF) =  -299.252764736     A.U. after   28 cycles
 E2 =    -0.9207508251D+00 EUMP2 =    -0.30017351556089D+03
 CCSD(T)
 CCSD(T)= -0.30020038446D+03

 The electronic state is 3-A".
 Alpha  occ. eigenvalues --  -20.74010 -20.73932 -20.72938 -20.72823  -1.74507
 Alpha  occ. eigenvalues --   -1.69873  -1.17049  -1.08558  -0.83788  -0.83783
 Alpha  occ. eigenvalues --   -0.78649  -0.78130  -0.75176  -0.67402  -0.50982
 Alpha  occ. eigenvalues --   -0.50977  -0.44817
 Alpha virt. eigenvalues --    0.04958   0.39420   0.44687   0.67201   0.67998
 Alpha virt. eigenvalues --    0.69940   0.70467   0.70570   0.73965   0.77752
 Alpha virt. eigenvalues --    0.78821   0.79752   0.82292   0.84060   0.84786

 Mulliken charges and spin densities:
               1          2
     1  O   -0.000251   0.999535
     2  O    0.000351   1.000398
     3  O   -0.000055   0.000067
     4  O   -0.000045  -0.000000
 Sum of Mulliken charges =  -0.00000   2.00000

 Dipole moment (field-independent basis, Debye):
    X=             -0.0024    Y=             -0.0010    Z=              0.0000  Tot=              0.0025
 Quadrupole moment (field-independent basis, Debye-Ang):
   XX=            -20.8139   YY=            -20.6277   ZZ=            -18.8839
   XY=              0.3033   XZ=              0.0000   YZ=             -0.0000

 3\CCSD=-300.1623094\CCSD(T)=-300.2003845\RMSD=4.482e-09\PG=CS [SG(O4)]
 Normal termination of Gaussian 16 at Tue Feb 13 18:16:32 2024.
