 Gaussian 16, Revision A.03,
 Gaussian 16:  ES64L-G16RevA.03 25-Dec-2016

 -----------------------------------------------
 #p ROCCSD(T,MaxCyc=200)/cc-pVTZ SCF(MaxCyc=200)
 -----------------------------------------------

 ---------
 O2_O2_170
 ---------
 Symbolic Z-matrix:
 Charge =  0 Multiplicity = 3

                         Standard orientation:
 ---------------------------------------------------------------------
 Center     Atomic      Atomic             Coordinates (Angstroms)
 Number     Number       Type             X           Y           Z
 ---------------------------------------------------------------------
      1          8           0       -0.870000   -1.910000    0.000000
      2          8           0        0.290000   -1.910000    0.000000
      3          8           0        0.290000    1.330000    0.000000
      4          8           0        0.290000    2.490000    0.000000
 ---------------------------------------------------------------------

 SCF Done:  E(ROHF) =  -299.252776713     A.U. after   28 cycles
 E2 =    -0.9213324337D+00 EUMP2 =    -0.30017410914674D+03
 CCSD(T)
 CCSD(T)= -0.30020088049D+03

 The electronic state is 3-A".
 Alpha  occ. eigenvalues --  -20.74399 -20.74232 -20.72858 -20.72741  -1.74839
 Alpha  occ. eigenvalues --   -1.69783  -1.17417  -1.08474  -0.84120  -0.84120
 Alpha  occ. eigenvalues --   -0.78563  -0.78545  -0.75091  -0.67278  -0.51325
 Alpha  occ. eigenvalues --   -0.51324  -0.44734
 Alpha virt. eigenvalues --    0.05027   0.39390   0.43550   0.62981   0.67082
 Alpha virt. eigenvalues --    0.67236   0.70566   0.72472   0.75457   0.77007
 Alpha virt. eigenvalues --    0.79799   0.80387   0.80949   0.82703   0.86688

 Mulliken charges and spin densities:
               1          2
     1  O   -0.000488   0.000041
     2  O    0.001178   0.000071
     3  O   -0.006950   0.994002
     4  O    0.006260   1.005886
 Sum of Mulliken charges =  -0.00000   2.00000

 Dipole moment (field-independent basis, Debye):
    X=              0.0077    Y=              0.0420    Z=              0.0000  Tot=              0.0427
 Quadrupole moment (field-independent basis, Debye-Ang):
   XX=            -20.3061   YY=            -19.3457   ZZ=            -20.5116
   XY=              0.0095   XZ=              0.0000   YZ=              0.0000

 Normal termination of Gaussian 16 at Tue Feb 13 17:09:25 2024.
