 Gaussian 16, Revision A.03,
 Gaussian 16:  ES64L-G16RevA.03 25-Dec-2016

 -----------------------------------------------
 #p ROCCSD(T,MaxCyc=200)/cc-pVTZ SCF(MaxCyc=200)
 -----------------------------------------------

 --------
 O2_O2_67
 --------
 Symbolic Z-matrix:
 Charge =  0 Multiplicity = 3

                         Standard orientation:
 ---------------------------------------------------------------------
 Center     Atomic      Atomic             Coordinates (Angstroms)
 Number     Number       Type             X           Y           Z
 ---------------------------------------------------------------------
      1          8           0        0.615183   -1.845183   -0.000000
      2          8           0       -0.205061   -1.024939   -0.000000
      3          8           0       -0.205061    0.855061    0.000000
      4          8           0       -0.205061    2.015061    0.000000
 ---------------------------------------------------------------------

 SCF Done:  E(ROHF) =  -299.088814176     A.U. after   20 cycles
 E2 =    -0.1067323242D+01 EUMP2 =    -0.30015613741848D+03
 CCSD(T)
 CCSD(T)= -0.30018720333D+03

 The electronic state is 3-A'.
 Alpha  occ. eigenvalues --  -20.76759 -20.74922 -20.74041 -20.73981  -1.74085
 Alpha  occ. eigenvalues --   -1.72762  -1.18895  -1.10279  -0.86227  -0.84041
 Alpha  occ. eigenvalues --   -0.81008  -0.75738  -0.72624  -0.71603  -0.51666
 Alpha  occ. eigenvalues --   -0.49506  -0.32930
 Alpha virt. eigenvalues --   -0.07607   0.43832   0.48103   0.63961   0.66993
 Alpha virt. eigenvalues --    0.70446   0.72175   0.72815   0.75005   0.77394
 Alpha virt. eigenvalues --    0.78893   0.80848   0.85677   0.94119   0.95234

 Mulliken charges and spin densities:
               1          2
     1  O   -0.018287   0.563467
     2  O    0.037039   0.432015
     3  O   -0.001055   0.351777
     4  O   -0.017696   0.652741
 Sum of Mulliken charges =   0.00000   2.00000

 Dipole moment (field-independent basis, Debye):
    X=             -0.0422    Y=             -0.0388    Z=              0.0000  Tot=              0.0574
 Quadrupole moment (field-independent basis, Debye-Ang):
   XX=            -20.0673   YY=            -20.8521   ZZ=            -20.1820
   XY=              0.4803   XZ=             -0.0000   YZ=             -0.0000

 \CCSD=-300.0956757\CCSD(T)=-300.1872033\RMSD=3.719e-09\PG=CS [SG(O4)]\
 Normal termination of Gaussian 16 at Tue Feb 13 13:51:50 2024.
