 Gaussian 16, Revision A.03,
 Gaussian 16:  ES64L-G16RevA.03 25-Dec-2016

 -----------------------------------------------
 #p ROCCSD(T,MaxCyc=200)/cc-pVTZ SCF(MaxCyc=200)
 -----------------------------------------------

 ---------
 O2_O2_117
 ---------
 Symbolic Z-matrix:
 Charge =  0 Multiplicity = 3

                         Standard orientation:
 ---------------------------------------------------------------------
 Center     Atomic      Atomic             Coordinates (Angstroms)
 Number     Number       Type             X           Y           Z
 ---------------------------------------------------------------------
      1          8           0        0.000000    0.000000    2.440000
      2          8           0        0.000000    0.000000    1.280000
      3          8           0        0.000000    0.000000   -1.280000
      4          8           0        0.000000    0.000000   -2.440000
 ---------------------------------------------------------------------

 SCF Done:  E(ROHF) =  -299.079820017     A.U. after   15 cycles
 E2 =    -0.1141097450D+01 EUMP2 =    -0.30022091746741D+03
 CCSD(T)
 CCSD(T)= -0.30023855071D+03

 Unable to determine electronic state:  an orbital has unidentified symmetry.
 Alpha  occ. eigenvalues --  -20.75700 -20.75698 -20.75127 -20.75127  -1.73472
 Alpha  occ. eigenvalues --   -1.73326  -1.14639  -1.12856  -0.84440  -0.84151
 Alpha  occ. eigenvalues --   -0.79162  -0.76050  -0.74742  -0.73643  -0.51622
 Alpha  occ. eigenvalues --   -0.50703  -0.29040
 Alpha virt. eigenvalues --   -0.12071   0.41089   0.48426   0.64732   0.67213
 Alpha virt. eigenvalues --    0.68204   0.69075   0.71603   0.74959   0.75697
 Alpha virt. eigenvalues --    0.78460   0.81358   0.85488   0.86808   0.88633

 Mulliken charges and spin densities:
               1          2
     1  O   -0.001953   0.576790
     2  O    0.001953   0.423210
     3  O    0.001953   0.423210
     4  O   -0.001953   0.576790
 Sum of Mulliken charges =  -0.00000   2.00000

 Dipole moment (field-independent basis, Debye):
    X=              0.0000    Y=              0.0000    Z=             -0.0000  Tot=              0.0000
 Quadrupole moment (field-independent basis, Debye-Ang):
   XX=            -20.1670   YY=            -19.6895   ZZ=            -20.5646
   XY=              0.0000   XZ=              0.0000   YZ=              0.0000

 -0=-300.2209175\MP4SDQ=-300.1143302\CCSD=-300.1140445\CCSD(T)=-300.238
 Normal termination of Gaussian 16 at Tue Feb 13 15:41:02 2024.
