 Gaussian 16, Revision A.03,
 Gaussian 16:  ES64L-G16RevA.03 25-Dec-2016

 -----------------------------------------------
 #p ROCCSD(T,MaxCyc=200)/cc-pVTZ SCF(MaxCyc=200)
 -----------------------------------------------

 --------
 O2_O2_33
 --------
 Symbolic Z-matrix:
 Charge =  0 Multiplicity = 3

                         Standard orientation:
 ---------------------------------------------------------------------
 Center     Atomic      Atomic             Coordinates (Angstroms)
 Number     Number       Type             X           Y           Z
 ---------------------------------------------------------------------
      1          8           0        0.000000    0.000000    1.880000
      2          8           0        0.000000    0.000000    0.720000
      3          8           0        0.000000    0.000000   -0.720000
      4          8           0        0.000000    0.000000   -1.880000
 ---------------------------------------------------------------------

 SCF Done:  E(ROHF) =  -298.966379738     A.U. after   15 cycles
 E2 =    -0.1013036965D+01 EUMP2 =    -0.29997941670303D+03
 CCSD(T)
 CCSD(T)= -0.30001581034D+03

 Unable to determine electronic state:  an orbital has unidentified symmetry.
 Alpha  occ. eigenvalues --  -20.73932 -20.73919 -20.71773 -20.71773  -1.75338
 Alpha  occ. eigenvalues --   -1.71336  -1.30948  -1.04975  -0.87066  -0.86965
 Alpha  occ. eigenvalues --   -0.81752  -0.77907  -0.70663  -0.55915  -0.54946
 Alpha  occ. eigenvalues --   -0.45118  -0.38314
 Alpha virt. eigenvalues --   -0.00252   0.45597   0.49476   0.65598   0.67515
 Alpha virt. eigenvalues --    0.68250   0.70313   0.73232   0.73328   0.79933
 Alpha virt. eigenvalues --    0.83827   0.84083   0.91076   0.98567   1.01666

 Mulliken charges and spin densities:
               1          2
     1  O   -0.047688   0.732700
     2  O    0.047688   0.267300
     3  O    0.047688   0.267300
     4  O   -0.047688   0.732700
 Sum of Mulliken charges =   0.00000   2.00000

 Dipole moment (field-independent basis, Debye):
    X=              0.0000    Y=             -0.0000    Z=             -0.0000  Tot=              0.0000
 Quadrupole moment (field-independent basis, Debye-Ang):
   XX=            -19.9800   YY=            -19.3821   ZZ=            -22.3077
   XY=              0.0000   XZ=              0.0000   YZ=              0.0000

 MP2-0=-299.9794167\MP4SDQ=-299.954167\CCSD=-299.949898\CCSD(T)=-300.01
 Normal termination of Gaussian 16 at Tue Feb 13 12:46:59 2024.
