 Gaussian 16, Revision A.03,
 Gaussian 16:  ES64L-G16RevA.03 25-Dec-2016

 -----------------------------------------------
 #p ROCCSD(T,MaxCyc=200)/cc-pVTZ SCF(MaxCyc=200)
 -----------------------------------------------

 --------
 O2_O2_78
 --------
 Symbolic Z-matrix:
 Charge =  0 Multiplicity = 3

                         Standard orientation:
 ---------------------------------------------------------------------
 Center     Atomic      Atomic             Coordinates (Angstroms)
 Number     Number       Type             X           Y           Z
 ---------------------------------------------------------------------
      1          8           0        0.000000    0.000000    2.180000
      2          8           0        0.000000    0.000000    1.020000
      3          8           0        0.000000    0.000000   -1.020000
      4          8           0        0.000000    0.000000   -2.180000
 ---------------------------------------------------------------------

 SCF Done:  E(ROHF) =  -299.096590549     A.U. after   14 cycles
 E2 =    -0.1079781049D+01 EUMP2 =    -0.30017637159788D+03
 CCSD(T)
 CCSD(T)= -0.30021016507D+03

 Unable to determine electronic state:  an orbital has unidentified symmetry.
 Alpha  occ. eigenvalues --  -20.75632 -20.75630 -20.74707 -20.74707  -1.73722
 Alpha  occ. eigenvalues --   -1.73105  -1.17149  -1.11025  -0.84844  -0.83804
 Alpha  occ. eigenvalues --   -0.81819  -0.75316  -0.73026  -0.72511  -0.52521
 Alpha  occ. eigenvalues --   -0.49679  -0.31655
 Alpha virt. eigenvalues --   -0.08845   0.44293   0.48537   0.64363   0.67062
 Alpha virt. eigenvalues --    0.69504   0.71912   0.72193   0.75280   0.76456
 Alpha virt. eigenvalues --    0.79075   0.84615   0.86024   0.90964   0.93991

 Mulliken charges and spin densities:
               1          2
     1  O   -0.017926   0.623573
     2  O    0.017926   0.376427
     3  O    0.017926   0.376427
     4  O   -0.017926   0.623573
 Sum of Mulliken charges =   0.00000   2.00000

 Dipole moment (field-independent basis, Debye):
    X=              0.0000    Y=             -0.0000    Z=             -0.0000  Tot=              0.0000
 Quadrupole moment (field-independent basis, Debye-Ang):
   XX=            -20.2196   YY=            -19.6595   ZZ=            -20.6341
   XY=              0.0000   XZ=              0.0000   YZ=              0.0000

 MP2-0=-300.1763716\MP4SDQ=-300.1192565\CCSD=-300.109916\CCSD(T)=-300.2
 Normal termination of Gaussian 16 at Tue Feb 13 14:14:16 2024.
