 Gaussian 16, Revision A.03,
 Gaussian 16:  ES64L-G16RevA.03 25-Dec-2016

 -----------------------------------------------
 #p ROCCSD(T,MaxCyc=200)/cc-pVTZ SCF(MaxCyc=200)
 -----------------------------------------------

 --------
 O2_O2_79
 --------
 Symbolic Z-matrix:
 Charge =  0 Multiplicity = 3

                         Standard orientation:
 ---------------------------------------------------------------------
 Center     Atomic      Atomic             Coordinates (Angstroms)
 Number     Number       Type             X           Y           Z
 ---------------------------------------------------------------------
      1          8           0        0.615183   -1.925183    0.000000
      2          8           0       -0.205061   -1.104939   -0.000000
      3          8           0       -0.205061    0.935061   -0.000000
      4          8           0       -0.205061    2.095061   -0.000000
 ---------------------------------------------------------------------

 SCF Done:  E(ROHF) =  -299.093682741     A.U. after   20 cycles
 E2 =    -0.1083235879D+01 EUMP2 =    -0.30017691861989D+03
 CCSD(T)
 CCSD(T)= -0.30020845447D+03

 The electronic state is 3-A'.
 Alpha  occ. eigenvalues --  -20.76372 -20.75253 -20.74534 -20.74454  -1.73822
 Alpha  occ. eigenvalues --   -1.72988  -1.17050  -1.11256  -0.85463  -0.84017
 Alpha  occ. eigenvalues --   -0.80543  -0.75327  -0.73438  -0.73006  -0.51627
 Alpha  occ. eigenvalues --   -0.50104  -0.31711
 Alpha virt. eigenvalues --   -0.09002   0.43241   0.47691   0.63827   0.66702
 Alpha virt. eigenvalues --    0.70109   0.72274   0.72527   0.75014   0.78122
 Alpha virt. eigenvalues --    0.78889   0.79941   0.85933   0.92152   0.93415

 Mulliken charges and spin densities:
               1          2
     1  O   -0.003692   0.575914
     2  O    0.016160   0.422918
     3  O    0.001597   0.373125
     4  O   -0.014064   0.628043
 Sum of Mulliken charges =  -0.00000   2.00000

 Dipole moment (field-independent basis, Debye):
    X=              0.0035    Y=             -0.0448    Z=             -0.0000  Tot=              0.0449
 Quadrupole moment (field-independent basis, Debye-Ang):
   XX=            -20.0530   YY=            -20.5841   ZZ=            -20.1971
   XY=              0.3857   XZ=             -0.0000   YZ=              0.0000

 \CCSD=-300.1078053\CCSD(T)=-300.2084545\RMSD=7.985e-09\PG=CS [SG(O4)]\
 Normal termination of Gaussian 16 at Tue Feb 13 14:16:43 2024.
