 Gaussian 16, Revision A.03,
 Gaussian 16:  ES64L-G16RevA.03 25-Dec-2016

 -----------------------------------------------
 #p ROCCSD(T,MaxCyc=200)/cc-pVTZ SCF(MaxCyc=200)
 -----------------------------------------------

 ---------
 O2_O2_302
 ---------
 Symbolic Z-matrix:
 Charge =  0 Multiplicity = 3

                         Standard orientation:
 ---------------------------------------------------------------------
 Center     Atomic      Atomic             Coordinates (Angstroms)
 Number     Number       Type             X           Y           Z
 ---------------------------------------------------------------------
      1          8           0       -0.870000   -2.790000    0.000000
      2          8           0        0.290000   -2.790000    0.000000
      3          8           0        0.290000    2.210000    0.000000
      4          8           0        0.290000    3.370000    0.000000
 ---------------------------------------------------------------------

 SCF Done:  E(ROHF) =  -299.252730614     A.U. after   33 cycles
 E2 =    -0.9206203107D+00 EUMP2 =    -0.30017335092484D+03
 CCSD(T)
 CCSD(T)= -0.30020024880D+03

 The electronic state is 3-A".
 Alpha  occ. eigenvalues --  -20.74015 -20.73939 -20.72981 -20.72865  -1.74514
 Alpha  occ. eigenvalues --   -1.69915  -1.17058  -1.08604  -0.83794  -0.83793
 Alpha  occ. eigenvalues --   -0.78691  -0.78140  -0.75225  -0.67443  -0.50989
 Alpha  occ. eigenvalues --   -0.50988  -0.44860
 Alpha virt. eigenvalues --    0.04915   0.41433   0.43233   0.67992   0.68009
 Alpha virt. eigenvalues --    0.70368   0.70527   0.72062   0.72527   0.78012
 Alpha virt. eigenvalues --    0.79702   0.79791   0.79998   0.82174   0.84676

 Mulliken charges and spin densities:
               1          2
     1  O    0.000024   1.000023
     2  O   -0.000021   0.999976
     3  O   -0.000211   0.000000
     4  O    0.000209  -0.000000
 Sum of Mulliken charges =  -0.00000   2.00000

 Dipole moment (field-independent basis, Debye):
    X=              0.0002    Y=              0.0029    Z=              0.0000  Tot=              0.0029
 Quadrupole moment (field-independent basis, Debye-Ang):
   XX=            -21.1132   YY=            -20.3022   ZZ=            -18.8835
   XY=              0.0009   XZ=              0.0000   YZ=              0.0000

 Normal termination of Gaussian 16 at Tue Feb 13 19:37:51 2024.
