 Gaussian 16, Revision A.03,
 Gaussian 16:  ES64L-G16RevA.03 25-Dec-2016

 -----------------------------------------------
 #p ROCCSD(T,MaxCyc=200)/cc-pVTZ SCF(MaxCyc=200)
 -----------------------------------------------

 --------
 O2_O2_17
 --------
 Symbolic Z-matrix:
 Charge =  0 Multiplicity = 3

                         Standard orientation:
 ---------------------------------------------------------------------
 Center     Atomic      Atomic             Coordinates (Angstroms)
 Number     Number       Type             X           Y           Z
 ---------------------------------------------------------------------
      1          8           0       -0.870000   -0.890000    0.000000
      2          8           0        0.290000   -0.890000    0.000000
      3          8           0        0.290000    0.310000    0.000000
      4          8           0        0.290000    1.470000    0.000000
 ---------------------------------------------------------------------

 SCF Done:  E(ROHF) =  -298.858255585     A.U. after   29 cycles
 E2 =    -0.9542644511D+00 EUMP2 =    -0.29981252003617D+03
 CCSD(T)
 CCSD(T)= -0.29984094830D+03

 The electronic state is 3-A".
 Alpha  occ. eigenvalues --  -20.86592 -20.85759 -20.74736 -20.55620  -1.95747
 Alpha  occ. eigenvalues --   -1.72478  -1.36261  -1.11224  -1.00593  -0.94004
 Alpha  occ. eigenvalues --   -0.87987  -0.78784  -0.74486  -0.56197  -0.53608
 Alpha  occ. eigenvalues --   -0.46191  -0.42225
 Alpha virt. eigenvalues --    0.13746   0.41041   0.46397   0.59356   0.62534
 Alpha virt. eigenvalues --    0.66159   0.69424   0.73040   0.73278   0.81154
 Alpha virt. eigenvalues --    0.82982   0.84926   0.86563   0.89224   0.97922

 Mulliken charges and spin densities:
               1          2
     1  O   -0.474329   0.209292
     2  O    0.242337   0.260337
     3  O    0.364060   0.875891
     4  O   -0.132068   0.654480
 Sum of Mulliken charges =  -0.00000   2.00000

 Dipole moment (field-independent basis, Debye):
    X=              2.4911    Y=              0.6680    Z=              0.0000  Tot=              2.5791
 Quadrupole moment (field-independent basis, Debye-Ang):
   XX=            -21.7175   YY=            -22.1337   ZZ=            -19.9057
   XY=             -2.1891   XZ=              0.0000   YZ=              0.0000

 Normal termination of Gaussian 16 at Tue Feb 13 12:19:25 2024.
