 Gaussian 16, Revision A.03,
 Gaussian 16:  ES64L-G16RevA.03 25-Dec-2016

 -----------------------------------------------
 #p ROCCSD(T,MaxCyc=200)/cc-pVTZ SCF(MaxCyc=200)
 -----------------------------------------------

 ---------
 O2_O2_172
 ---------
 Symbolic Z-matrix:
 Charge =  0 Multiplicity = 3

                         Standard orientation:
 ---------------------------------------------------------------------
 Center     Atomic      Atomic             Coordinates (Angstroms)
 Number     Number       Type             X           Y           Z
 ---------------------------------------------------------------------
      1          8           0        0.615183   -2.545183    0.000000
      2          8           0       -0.205061   -1.724939    0.000000
      3          8           0       -0.205061    1.555061    0.000000
      4          8           0       -0.205061    2.715061    0.000000
 ---------------------------------------------------------------------

 SCF Done:  E(ROHF) =  -299.252670509     A.U. after   25 cycles
 E2 =    -0.9211440837D+00 EUMP2 =    -0.30017381459291D+03
 CCSD(T)
 CCSD(T)= -0.30020062992D+03

 The electronic state is 3-A".
 Alpha  occ. eigenvalues --  -20.73982 -20.73902 -20.72919 -20.72803  -1.74480
 Alpha  occ. eigenvalues --   -1.69857  -1.17024  -1.08541  -0.83761  -0.83761
 Alpha  occ. eigenvalues --   -0.78633  -0.78122  -0.75133  -0.67386  -0.50955
 Alpha  occ. eigenvalues --   -0.50945  -0.44798
 Alpha virt. eigenvalues --    0.04972   0.37909   0.46052   0.64551   0.67645
 Alpha virt. eigenvalues --    0.68680   0.70677   0.70888   0.74912   0.78072
 Alpha virt. eigenvalues --    0.78586   0.79116   0.83422   0.85935   0.86173

 Mulliken charges and spin densities:
               1          2
     1  O   -0.000186   0.999004
     2  O    0.000422   1.000782
     3  O   -0.000829   0.000182
     4  O    0.000593   0.000031
 Sum of Mulliken charges =  -0.00000   2.00000

 Dipole moment (field-independent basis, Debye):
    X=             -0.0050    Y=             -0.0011    Z=              0.0000  Tot=              0.0051
 Quadrupole moment (field-independent basis, Debye-Ang):
   XX=            -20.8147   YY=            -20.6508   ZZ=            -18.8844
   XY=              0.3072   XZ=             -0.0000   YZ=              0.0000

 CCSD=-300.1625078\CCSD(T)=-300.2006299\RMSD=2.715e-09\PG=CS [SG(O4)]\\
 Normal termination of Gaussian 16 at Tue Feb 13 17:11:18 2024.
