 Gaussian 16, Revision A.03,
 Gaussian 16:  ES64L-G16RevA.03 25-Dec-2016

 -----------------------------------------------
 #p ROCCSD(T,MaxCyc=200)/cc-pVTZ SCF(MaxCyc=200)
 -----------------------------------------------

 --------
 O2_O2_70
 --------
 Symbolic Z-matrix:
 Charge =  0 Multiplicity = 3

                         Standard orientation:
 ---------------------------------------------------------------------
 Center     Atomic      Atomic             Coordinates (Angstroms)
 Number     Number       Type             X           Y           Z
 ---------------------------------------------------------------------
      1          8           0        0.615183   -1.865183   -0.000000
      2          8           0       -0.205061   -1.044939   -0.000000
      3          8           0       -0.205061    0.875061    0.000000
      4          8           0       -0.205061    2.035061    0.000000
 ---------------------------------------------------------------------

 SCF Done:  E(ROHF) =  -299.090978450     A.U. after   20 cycles
 E2 =    -0.1071099225D+01 EUMP2 =    -0.30016207767552D+03
 CCSD(T)
 CCSD(T)= -0.30019352332D+03

 The electronic state is 3-A'.
 Alpha  occ. eigenvalues --  -20.76632 -20.75021 -20.74162 -20.74148  -1.74001
 Alpha  occ. eigenvalues --   -1.72827  -1.18346  -1.10551  -0.85998  -0.84022
 Alpha  occ. eigenvalues --   -0.80913  -0.75615  -0.72731  -0.72125  -0.51660
 Alpha  occ. eigenvalues --   -0.49682  -0.32598
 Alpha virt. eigenvalues --   -0.07979   0.43685   0.47994   0.63913   0.66913
 Alpha virt. eigenvalues --    0.70367   0.72273   0.72738   0.75001   0.77627
 Alpha virt. eigenvalues --    0.78833   0.80593   0.85750   0.93698   0.95086

 Mulliken charges and spin densities:
               1          2
     1  O   -0.013606   0.568447
     2  O    0.030333   0.428222
     3  O   -0.000006   0.357363
     4  O   -0.016721   0.645969
 Sum of Mulliken charges =   0.00000   2.00000

 Dipole moment (field-independent basis, Debye):
    X=             -0.0274    Y=             -0.0411    Z=              0.0000  Tot=              0.0494
 Quadrupole moment (field-independent basis, Debye-Ang):
   XX=            -20.0626   YY=            -20.7704   ZZ=            -20.1882
   XY=              0.4512   XZ=              0.0000   YZ=             -0.0000

 \CCSD=-300.099668\CCSD(T)=-300.1935233\RMSD=2.451e-09\PG=CS [SG(O4)]\\
 Normal termination of Gaussian 16 at Tue Feb 13 13:57:34 2024.
