 Gaussian 16, Revision A.03,
 Gaussian 16:  ES64L-G16RevA.03 25-Dec-2016

 -----------------------------------------------
 #p ROCCSD(T,MaxCyc=200)/cc-pVTZ SCF(MaxCyc=200)
 -----------------------------------------------

 ---------
 O2_O2_263
 ---------
 Symbolic Z-matrix:
 Charge =  0 Multiplicity = 3

                         Standard orientation:
 ---------------------------------------------------------------------
 Center     Atomic      Atomic             Coordinates (Angstroms)
 Number     Number       Type             X           Y           Z
 ---------------------------------------------------------------------
      1          8           0       -0.870000   -2.530000    0.000000
      2          8           0        0.290000   -2.530000    0.000000
      3          8           0        0.290000    1.950000    0.000000
      4          8           0        0.290000    3.110000    0.000000
 ---------------------------------------------------------------------

 SCF Done:  E(ROHF) =  -299.252741895     A.U. after   28 cycles
 E2 =    -0.9206624434D+00 EUMP2 =    -0.30017340433891D+03
 CCSD(T)
 CCSD(T)= -0.30020029442D+03

 The electronic state is 3-A".
 Alpha  occ. eigenvalues --  -20.74005 -20.73929 -20.72989 -20.72873  -1.74503
 Alpha  occ. eigenvalues --   -1.69922  -1.17048  -1.08611  -0.83784  -0.83781
 Alpha  occ. eigenvalues --   -0.78698  -0.78129  -0.75233  -0.67451  -0.50979
 Alpha  occ. eigenvalues --   -0.50977  -0.44868
 Alpha virt. eigenvalues --    0.04907   0.41431   0.43137   0.67647   0.68015
 Alpha virt. eigenvalues --    0.70360   0.70522   0.72072   0.72805   0.78018
 Alpha virt. eigenvalues --    0.79393   0.79799   0.80424   0.82224   0.84670

 Mulliken charges and spin densities:
               1          2
     1  O    0.000102   1.000107
     2  O   -0.000072   0.999889
     3  O   -0.000337   0.000004
     4  O    0.000307  -0.000000
 Sum of Mulliken charges =  -0.00000   2.00000

 Dipole moment (field-independent basis, Debye):
    X=             -0.0000    Y=              0.0037    Z=              0.0000  Tot=              0.0037
 Quadrupole moment (field-independent basis, Debye-Ang):
   XX=            -21.1128   YY=            -20.2995   ZZ=            -18.8836
   XY=              0.0020   XZ=              0.0000   YZ=              0.0000

 Normal termination of Gaussian 16 at Tue Feb 13 18:59:37 2024.
