 Gaussian 16, Revision A.03,
 Gaussian 16:  ES64L-G16RevA.03 25-Dec-2016

 -----------------------------------------------
 #p ROCCSD(T,MaxCyc=200)/cc-pVTZ SCF(MaxCyc=200)
 -----------------------------------------------

 --------
 O2_O2_60
 --------
 Symbolic Z-matrix:
 Charge =  0 Multiplicity = 3

                         Standard orientation:
 ---------------------------------------------------------------------
 Center     Atomic      Atomic             Coordinates (Angstroms)
 Number     Number       Type             X           Y           Z
 ---------------------------------------------------------------------
      1          8           0        0.000000    0.000000    2.060000
      2          8           0        0.000000    0.000000    0.900000
      3          8           0        0.000000    0.000000   -0.900000
      4          8           0        0.000000    0.000000   -2.060000
 ---------------------------------------------------------------------

 SCF Done:  E(ROHF) =  -299.057773527     A.U. after   13 cycles
 E2 =    -0.1070550079D+01 EUMP2 =    -0.30012832360545D+03
 CCSD(T)
 CCSD(T)= -0.30013576841D+03

 Unable to determine electronic state:  an orbital has unidentified symmetry.
 Alpha  occ. eigenvalues --  -20.77023 -20.77020 -20.73276 -20.73276  -1.74315
 Alpha  occ. eigenvalues --   -1.72922  -1.20913  -1.09262  -0.83799  -0.83716
 Alpha  occ. eigenvalues --   -0.81270  -0.78168  -0.74341  -0.69345  -0.50598
 Alpha  occ. eigenvalues --   -0.46307  -0.34878
 Alpha virt. eigenvalues --   -0.09919   0.45236   0.48882   0.65089   0.65715
 Alpha virt. eigenvalues --    0.71690   0.71720   0.71732   0.76399   0.78159
 Alpha virt. eigenvalues --    0.79273   0.84589   0.84926   0.95886   0.96361

 Mulliken charges and spin densities:
               1          2
     1  O   -0.071222   0.462573
     2  O    0.071222   0.537427
     3  O    0.071222   0.537427
     4  O   -0.071222   0.462573
 Sum of Mulliken charges =  -0.00000   2.00000

 Dipole moment (field-independent basis, Debye):
    X=             -0.0000    Y=             -0.0000    Z=              0.0000  Tot=              0.0000
 Quadrupole moment (field-independent basis, Debye-Ang):
   XX=            -19.1303   YY=            -20.7139   ZZ=            -22.3237
   XY=              0.0000   XZ=              0.0000   YZ=              0.0000

 MP2-0=-300.1283236\MP4SDQ=-300.062883\CCSD=-300.0571665\CCSD(T)=-300.1
 Normal termination of Gaussian 16 at Tue Feb 13 13:36:18 2024.
