 Gaussian 16, Revision A.03,
 Gaussian 16:  ES64L-G16RevA.03 25-Dec-2016

 -----------------------------------------------
 #p ROCCSD(T,MaxCyc=200)/cc-pVTZ SCF(MaxCyc=200)
 -----------------------------------------------

 --------
 O2_O2_77
 --------
 Symbolic Z-matrix:
 Charge =  0 Multiplicity = 3

                         Standard orientation:
 ---------------------------------------------------------------------
 Center     Atomic      Atomic             Coordinates (Angstroms)
 Number     Number       Type             X           Y           Z
 ---------------------------------------------------------------------
      1          8           0       -0.870000   -1.290000    0.000000
      2          8           0        0.290000   -1.290000    0.000000
      3          8           0        0.290000    0.710000    0.000000
      4          8           0        0.290000    1.870000    0.000000
 ---------------------------------------------------------------------

 SCF Done:  E(ROHF) =  -299.106147819     A.U. after   20 cycles
 E2 =    -0.1059245643D+01 EUMP2 =    -0.30016539346242D+03
 CCSD(T)
 CCSD(T)= -0.30019595106D+03

 The electronic state is 3-A'.
 Alpha  occ. eigenvalues --  -20.76412 -20.75970 -20.74544 -20.73719  -1.74540
 Alpha  occ. eigenvalues --   -1.72429  -1.15977  -1.12634  -0.85482  -0.83234
 Alpha  occ. eigenvalues --   -0.81784  -0.78228  -0.73887  -0.68943  -0.52226
 Alpha  occ. eigenvalues --   -0.50096  -0.33588
 Alpha virt. eigenvalues --   -0.07102   0.41426   0.46960   0.63392   0.68983
 Alpha virt. eigenvalues --    0.69518   0.70852   0.71106   0.74845   0.77039
 Alpha virt. eigenvalues --    0.78595   0.79634   0.85616   0.87339   0.90877

 Mulliken charges and spin densities:
               1          2
     1  O   -0.006016   0.470021
     2  O    0.045068   0.530836
     3  O   -0.023526   0.344684
     4  O   -0.015526   0.654459
 Sum of Mulliken charges =   0.00000   2.00000

 Dipole moment (field-independent basis, Debye):
    X=              0.0831    Y=             -0.2444    Z=              0.0000  Tot=              0.2581
 Quadrupole moment (field-independent basis, Debye-Ang):
   XX=            -20.5765   YY=            -20.4717   ZZ=            -19.6491
   XY=              0.1602   XZ=              0.0000   YZ=              0.0000

 Normal termination of Gaussian 16 at Tue Feb 13 14:12:56 2024.
