 Gaussian 16, Revision A.03,
 Gaussian 16:  ES64L-G16RevA.03 25-Dec-2016

 -----------------------------------------------
 #p ROCCSD(T,MaxCyc=200)/cc-pVTZ SCF(MaxCyc=200)
 -----------------------------------------------

 --------
 O2_O2_93
 --------
 Symbolic Z-matrix:
 Charge =  0 Multiplicity = 3

                         Standard orientation:
 ---------------------------------------------------------------------
 Center     Atomic      Atomic             Coordinates (Angstroms)
 Number     Number       Type             X           Y           Z
 ---------------------------------------------------------------------
      1          8           0        0.000000    0.000000    2.280000
      2          8           0        0.000000    0.000000    1.120000
      3          8           0        0.000000    0.000000   -1.120000
      4          8           0        0.000000    0.000000   -2.280000
 ---------------------------------------------------------------------

 SCF Done:  E(ROHF) =  -299.066241149     A.U. after   13 cycles
 E2 =    -0.1105792781D+01 EUMP2 =    -0.30017203393063D+03
 CCSD(T)
 CCSD(T)= -0.30017874520D+03

 Unable to determine electronic state:  an orbital has unidentified symmetry.
 Alpha  occ. eigenvalues --  -20.76955 -20.76953 -20.74315 -20.74315  -1.73742
 Alpha  occ. eigenvalues --   -1.73368  -1.16042  -1.12057  -0.82768  -0.82002
 Alpha  occ. eigenvalues --   -0.80657  -0.77073  -0.75334  -0.74763  -0.49408
 Alpha  occ. eigenvalues --   -0.47736  -0.32148
 Alpha virt. eigenvalues --   -0.13171   0.43159   0.48670   0.64563   0.65078
 Alpha virt. eigenvalues --    0.70959   0.71051   0.71057   0.76144   0.76458
 Alpha virt. eigenvalues --    0.77493   0.84735   0.84976   0.86883   0.92630

 Mulliken charges and spin densities:
               1          2
     1  O   -0.043869   0.467597
     2  O    0.043869   0.532403
     3  O    0.043869   0.532403
     4  O   -0.043869   0.467597
 Sum of Mulliken charges =  -0.00000   2.00000

 Dipole moment (field-independent basis, Debye):
    X=             -0.0000    Y=             -0.0000    Z=              0.0000  Tot=              0.0000
 Quadrupole moment (field-independent basis, Debye-Ang):
   XX=            -19.1542   YY=            -20.7567   ZZ=            -21.6898
   XY=              0.0000   XZ=              0.0000   YZ=              0.0000

 MP2-0=-300.1720339\MP4SDQ=-300.0810124\CCSD=-300.0793469\CCSD(T)=-300.
 Normal termination of Gaussian 16 at Tue Feb 13 14:45:27 2024.
