 Gaussian 16, Revision A.03,
 Gaussian 16:  ES64L-G16RevA.03 25-Dec-2016

 -----------------------------------------------
 #p ROCCSD(T,MaxCyc=200)/cc-pVTZ SCF(MaxCyc=200)
 -----------------------------------------------

 ---------
 O2_O2_173
 ---------
 Symbolic Z-matrix:
 Charge =  0 Multiplicity = 3

                         Standard orientation:
 ---------------------------------------------------------------------
 Center     Atomic      Atomic             Coordinates (Angstroms)
 Number     Number       Type             X           Y           Z
 ---------------------------------------------------------------------
      1          8           0       -0.870000   -1.930000    0.000000
      2          8           0        0.290000   -1.930000    0.000000
      3          8           0        0.290000    1.350000    0.000000
      4          8           0        0.290000    2.510000    0.000000
 ---------------------------------------------------------------------

 SCF Done:  E(ROHF) =  -299.252804766     A.U. after   27 cycles
 E2 =    -0.9212719513D+00 EUMP2 =    -0.30017407671772D+03
 CCSD(T)
 CCSD(T)= -0.30020085813D+03

 The electronic state is 3-A".
 Alpha  occ. eigenvalues --  -20.74388 -20.74226 -20.72864 -20.72747  -1.74831
 Alpha  occ. eigenvalues --   -1.69788  -1.17406  -1.08479  -0.84111  -0.84111
 Alpha  occ. eigenvalues --   -0.78568  -0.78529  -0.75097  -0.67287  -0.51316
 Alpha  occ. eigenvalues --   -0.51315  -0.44740
 Alpha virt. eigenvalues --    0.05023   0.39377   0.43538   0.63066   0.67167
 Alpha virt. eigenvalues --    0.67295   0.70552   0.72486   0.75462   0.77066
 Alpha virt. eigenvalues --    0.79768   0.80382   0.81018   0.82647   0.86697

 Mulliken charges and spin densities:
               1          2
     1  O   -0.000462   0.000037
     2  O    0.001141   0.000061
     3  O   -0.006711   0.994237
     4  O    0.006031   1.005664
 Sum of Mulliken charges =  -0.00000   2.00000

 Dipole moment (field-independent basis, Debye):
    X=              0.0071    Y=              0.0398    Z=              0.0000  Tot=              0.0404
 Quadrupole moment (field-independent basis, Debye-Ang):
   XX=            -20.3059   YY=            -19.3465   ZZ=            -20.5117
   XY=              0.0096   XZ=              0.0000   YZ=              0.0000

 CCSD(T)=-300.2008581\RMSD=3.289e-09\PG=CS [SG(O4)]\\@
 Normal termination of Gaussian 16 at Tue Feb 13 17:13:02 2024.
