 Gaussian 16, Revision A.03,
 Gaussian 16:  ES64L-G16RevA.03 25-Dec-2016

 -----------------------------------------------
 #p ROCCSD(T,MaxCyc=200)/cc-pVTZ SCF(MaxCyc=200)
 -----------------------------------------------

 --------
 O2_O2_62
 --------
 Symbolic Z-matrix:
 Charge =  0 Multiplicity = 3

                         Standard orientation:
 ---------------------------------------------------------------------
 Center     Atomic      Atomic             Coordinates (Angstroms)
 Number     Number       Type             X           Y           Z
 ---------------------------------------------------------------------
      1          8           0       -0.870000   -1.190000    0.000000
      2          8           0        0.290000   -1.190000    0.000000
      3          8           0        0.290000    0.610000    0.000000
      4          8           0        0.290000    1.770000    0.000000
 ---------------------------------------------------------------------

 SCF Done:  E(ROHF) =  -299.088949041     A.U. after   21 cycles
 E2 =    -0.1041737424D+01 EUMP2 =    -0.30013068646481D+03
 CCSD(T)
 CCSD(T)= -0.30015916628D+03

 The electronic state is 3-A'.
 Alpha  occ. eigenvalues --  -20.76681 -20.76062 -20.73208 -20.72501  -1.75421
 Alpha  occ. eigenvalues --   -1.71517  -1.17813  -1.11825  -0.86197  -0.83366
 Alpha  occ. eigenvalues --   -0.82359  -0.78777  -0.73483  -0.65500  -0.52845
 Alpha  occ. eigenvalues --   -0.49141  -0.35152
 Alpha virt. eigenvalues --   -0.04903   0.41196   0.47892   0.64062   0.66488
 Alpha virt. eigenvalues --    0.70209   0.70668   0.71500   0.76032   0.77305
 Alpha virt. eigenvalues --    0.78508   0.81783   0.86170   0.87962   0.95253

 Mulliken charges and spin densities:
               1          2
     1  O    0.009911   0.513687
     2  O    0.055357   0.487928
     3  O   -0.038437   0.318524
     4  O   -0.026831   0.679860
 Sum of Mulliken charges =  -0.00000   2.00000

 Dipole moment (field-independent basis, Debye):
    X=              0.0713    Y=             -0.4151    Z=              0.0000  Tot=              0.4212
 Quadrupole moment (field-independent basis, Debye-Ang):
   XX=            -20.4133   YY=            -20.8262   ZZ=            -19.5917
   XY=              0.1886   XZ=              0.0000   YZ=              0.0000

 Normal termination of Gaussian 16 at Tue Feb 13 13:41:37 2024.
