 Gaussian 16, Revision A.03,
 Gaussian 16:  ES64L-G16RevA.03 25-Dec-2016

 -----------------------------------------------
 #p ROCCSD(T,MaxCyc=200)/cc-pVTZ SCF(MaxCyc=200)
 -----------------------------------------------

 ---------
 O2_O2_200
 ---------
 Symbolic Z-matrix:
 Charge =  0 Multiplicity = 3

                         Standard orientation:
 ---------------------------------------------------------------------
 Center     Atomic      Atomic             Coordinates (Angstroms)
 Number     Number       Type             X           Y           Z
 ---------------------------------------------------------------------
      1          8           0       -0.870000   -2.110000    0.000000
      2          8           0        0.290000   -2.110000    0.000000
      3          8           0        0.290000    1.530000    0.000000
      4          8           0        0.290000    2.690000    0.000000
 ---------------------------------------------------------------------

 SCF Done:  E(ROHF) =  -299.252799738     A.U. after   33 cycles
 E2 =    -0.9209320812D+00 EUMP2 =    -0.30017373181923D+03
 CCSD(T)
 CCSD(T)= -0.30020058271D+03

 The electronic state is 3-A".
 Alpha  occ. eigenvalues --  -20.73983 -20.73906 -20.73011 -20.72895  -1.74478
 Alpha  occ. eigenvalues --   -1.69942  -1.17021  -1.08634  -0.83761  -0.83753
 Alpha  occ. eigenvalues --   -0.78718  -0.78104  -0.75251  -0.67471  -0.50956
 Alpha  occ. eigenvalues --   -0.50948  -0.44886
 Alpha virt. eigenvalues --    0.04885   0.40914   0.42290   0.64172   0.67833
 Alpha virt. eigenvalues --    0.70024   0.70642   0.72137   0.75192   0.77839
 Alpha virt. eigenvalues --    0.78561   0.79787   0.81488   0.84416   0.84773

 Mulliken charges and spin densities:
               1          2
     1  O    0.000484   1.000524
     2  O   -0.000187   0.999421
     3  O   -0.001343   0.000050
     4  O    0.001046   0.000005
 Sum of Mulliken charges =  -0.00000   2.00000

 Dipole moment (field-independent basis, Debye):
    X=             -0.0011    Y=              0.0050    Z=              0.0000  Tot=              0.0051
 Quadrupole moment (field-independent basis, Debye-Ang):
   XX=            -21.1111   YY=            -20.2882   ZZ=            -18.8840
   XY=              0.0062   XZ=              0.0000   YZ=              0.0000

 Normal termination of Gaussian 16 at Tue Feb 13 17:45:12 2024.
