 Gaussian 16, Revision A.03,
 Gaussian 16:  ES64L-G16RevA.03 25-Dec-2016

 -----------------------------------------------
 #p ROCCSD(T,MaxCyc=200)/cc-pVTZ SCF(MaxCyc=200)
 -----------------------------------------------

 ---------
 O2_O2_160
 ---------
 Symbolic Z-matrix:
 Charge =  0 Multiplicity = 3

                         Standard orientation:
 ---------------------------------------------------------------------
 Center     Atomic      Atomic             Coordinates (Angstroms)
 Number     Number       Type             X           Y           Z
 ---------------------------------------------------------------------
      1          8           0        0.615183   -2.465183   -0.000000
      2          8           0       -0.205061   -1.644939    0.000000
      3          8           0       -0.205061    1.475061    0.000000
      4          8           0       -0.205061    2.635061    0.000000
 ---------------------------------------------------------------------

 SCF Done:  E(ROHF) =  -299.252529742     A.U. after   26 cycles
 E2 =    -0.9213132710D+00 EUMP2 =    -0.30017384301312D+03
 CCSD(T)
 CCSD(T)= -0.30020063840D+03

 The electronic state is 3-A".
 Alpha  occ. eigenvalues --  -20.73964 -20.73883 -20.72911 -20.72795  -1.74465
 Alpha  occ. eigenvalues --   -1.69852  -1.17014  -1.08538  -0.83753  -0.83746
 Alpha  occ. eigenvalues --   -0.78627  -0.78130  -0.75102  -0.67380  -0.50940
 Alpha  occ. eigenvalues --   -0.50929  -0.44791
 Alpha virt. eigenvalues --    0.04975   0.38299   0.46287   0.64472   0.67386
 Alpha virt. eigenvalues --    0.68308   0.70757   0.71127   0.75041   0.77925
 Alpha virt. eigenvalues --    0.78815   0.78907   0.83965   0.86098   0.86622

 Mulliken charges and spin densities:
               1          2
     1  O   -0.000460   0.998715
     2  O    0.000647   1.001073
     3  O   -0.000519   0.000151
     4  O    0.000333   0.000061
 Sum of Mulliken charges =  -0.00000   2.00000

 Dipole moment (field-independent basis, Debye):
    X=             -0.0063    Y=              0.0011    Z=              0.0000  Tot=              0.0064
 Quadrupole moment (field-independent basis, Debye-Ang):
   XX=            -20.8156   YY=            -20.6664   ZZ=            -18.8846
   XY=              0.3093   XZ=             -0.0000   YZ=             -0.0000

 CCSD=-300.1624957\CCSD(T)=-300.2006384\RMSD=2.656e-09\PG=CS [SG(O4)]\\
 Normal termination of Gaussian 16 at Tue Feb 13 16:56:10 2024.
