 Gaussian 16, Revision A.03,
 Gaussian 16:  ES64L-G16RevA.03 25-Dec-2016

 -----------------------------------------------
 #p ROCCSD(T,MaxCyc=200)/cc-pVTZ SCF(MaxCyc=200)
 -----------------------------------------------

 ---------
 O2_O2_212
 ---------
 Symbolic Z-matrix:
 Charge =  0 Multiplicity = 3

                         Standard orientation:
 ---------------------------------------------------------------------
 Center     Atomic      Atomic             Coordinates (Angstroms)
 Number     Number       Type             X           Y           Z
 ---------------------------------------------------------------------
      1          8           0       -0.870000   -2.190000    0.000000
      2          8           0        0.290000   -2.190000    0.000000
      3          8           0        0.290000    1.610000    0.000000
      4          8           0        0.290000    2.770000    0.000000
 ---------------------------------------------------------------------

 SCF Done:  E(ROHF) =  -299.252857736     A.U. after   60 cycles
 E2 =    -0.9208182215D+00 EUMP2 =    -0.30017367595710D+03
 CCSD(T)
 CCSD(T)= -0.30020053433D+03

 The electronic state is 3-A".
 Alpha  occ. eigenvalues --  -20.74276 -20.74159 -20.72900 -20.72784  -1.74745
 Alpha  occ. eigenvalues --   -1.69828  -1.17305  -1.08517  -0.84026  -0.84026
 Alpha  occ. eigenvalues --   -0.78607  -0.78398  -0.75139  -0.67346  -0.51227
 Alpha  occ. eigenvalues --   -0.51227  -0.44776
 Alpha virt. eigenvalues --    0.04997   0.40219   0.43407   0.65807   0.67733
 Alpha virt. eigenvalues --    0.67760   0.70459   0.72573   0.74692   0.78333
 Alpha virt. eigenvalues --    0.79599   0.80085   0.80303   0.82299   0.85963

 Mulliken charges and spin densities:
               1          2
     1  O   -0.000199   0.000007
     2  O    0.000539   0.000008
     3  O   -0.003823   0.996370
     4  O    0.003484   1.003615
 Sum of Mulliken charges =  -0.00000   2.00000

 Dipole moment (field-independent basis, Debye):
    X=              0.0032    Y=              0.0237    Z=              0.0000  Tot=              0.0240
 Quadrupole moment (field-independent basis, Debye-Ang):
   XX=            -20.3053   YY=            -19.3750   ZZ=            -20.5126
   XY=              0.0077   XZ=              0.0000   YZ=              0.0000

 Normal termination of Gaussian 16 at Tue Feb 13 17:59:36 2024.
