 Gaussian 16, Revision A.03,
 Gaussian 16:  ES64L-G16RevA.03 25-Dec-2016

 -----------------------------------------------
 #p ROCCSD(T,MaxCyc=200)/cc-pVTZ SCF(MaxCyc=200)
 -----------------------------------------------

 ---------
 O2_O2_155
 ---------
 Symbolic Z-matrix:
 Charge =  0 Multiplicity = 3

                         Standard orientation:
 ---------------------------------------------------------------------
 Center     Atomic      Atomic             Coordinates (Angstroms)
 Number     Number       Type             X           Y           Z
 ---------------------------------------------------------------------
      1          8           0       -0.870000   -1.810000    0.000000
      2          8           0        0.290000   -1.810000    0.000000
      3          8           0        0.290000    1.230000    0.000000
      4          8           0        0.290000    2.390000    0.000000
 ---------------------------------------------------------------------

 SCF Done:  E(ROHF) =  -299.252429191     A.U. after   27 cycles
 E2 =    -0.9215779825D+00 EUMP2 =    -0.30017400717381D+03
 CCSD(T)
 CCSD(T)= -0.30020080772D+03

 The electronic state is 3-A".
 Alpha  occ. eigenvalues --  -20.73914 -20.73836 -20.73036 -20.72918  -1.74415
 Alpha  occ. eigenvalues --   -1.69973  -1.16960  -1.08687  -0.83747  -0.83700
 Alpha  occ. eigenvalues --   -0.78746  -0.78059  -0.75231  -0.67501  -0.50901
 Alpha  occ. eigenvalues --   -0.50895  -0.44904
 Alpha virt. eigenvalues --    0.04843   0.40528   0.42765   0.62850   0.66679
 Alpha virt. eigenvalues --    0.68483   0.71388   0.72300   0.75216   0.77831
 Alpha virt. eigenvalues --    0.79074   0.79508   0.79650   0.85622   0.87734

 Mulliken charges and spin densities:
               1          2
     1  O    0.001044   1.000434
     2  O   -0.000931   0.999375
     3  O   -0.002142   0.000130
     4  O    0.002029   0.000061
 Sum of Mulliken charges =  -0.00000   2.00000

 Dipole moment (field-independent basis, Debye):
    X=              0.0018    Y=              0.0199    Z=              0.0000  Tot=              0.0200
 Quadrupole moment (field-independent basis, Debye-Ang):
   XX=            -21.1114   YY=            -20.3210   ZZ=            -18.8844
   XY=              0.0058   XZ=              0.0000   YZ=              0.0000

 Normal termination of Gaussian 16 at Tue Feb 13 16:50:52 2024.
