 Gaussian 16, Revision A.03,
 Gaussian 16:  ES64L-G16RevA.03 25-Dec-2016

 -----------------------------------------------
 #p ROCCSD(T,MaxCyc=200)/cc-pVTZ SCF(MaxCyc=200)
 -----------------------------------------------

 ---------
 O2_O2_125
 ---------
 Symbolic Z-matrix:
 Charge =  0 Multiplicity = 3

                         Standard orientation:
 ---------------------------------------------------------------------
 Center     Atomic      Atomic             Coordinates (Angstroms)
 Number     Number       Type             X           Y           Z
 ---------------------------------------------------------------------
      1          8           0       -0.870000   -1.610000    0.000000
      2          8           0        0.290000   -1.610000    0.000000
      3          8           0        0.290000    1.030000    0.000000
      4          8           0        0.290000    2.190000    0.000000
 ---------------------------------------------------------------------

 SCF Done:  E(ROHF) =  -299.090552977     A.U. after   21 cycles
 E2 =    -0.1118511379D+01 EUMP2 =    -0.30020906435599D+03
 CCSD(T)
 CCSD(T)= -0.30023447617D+03

 The electronic state is 3-A'.
 Alpha  occ. eigenvalues --  -20.76066 -20.75949 -20.75509 -20.74924  -1.73787
 Alpha  occ. eigenvalues --   -1.73233  -1.14230  -1.13561  -0.84718  -0.84112
 Alpha  occ. eigenvalues --   -0.78651  -0.77755  -0.74158  -0.73538  -0.51640
 Alpha  occ. eigenvalues --   -0.50986  -0.30062
 Alpha virt. eigenvalues --   -0.11292   0.41114   0.43953   0.63941   0.65336
 Alpha virt. eigenvalues --    0.68392   0.69715   0.72026   0.75437   0.76184
 Alpha virt. eigenvalues --    0.77860   0.78515   0.80876   0.83230   0.86860

 Mulliken charges and spin densities:
               1          2
     1  O   -0.005290   0.481275
     2  O    0.020583   0.518852
     3  O   -0.019851   0.406645
     4  O    0.004557   0.593227
 Sum of Mulliken charges =   0.00000   2.00000

 Dipole moment (field-independent basis, Debye):
    X=              0.0200    Y=             -0.1100    Z=              0.0000  Tot=              0.1118
 Quadrupole moment (field-independent basis, Debye-Ang):
   XX=            -20.6768   YY=            -20.1267   ZZ=            -19.6930
   XY=              0.0836   XZ=              0.0000   YZ=              0.0000

 Normal termination of Gaussian 16 at Tue Feb 13 15:59:44 2024.
