 Gaussian 16, Revision A.03,
 Gaussian 16:  ES64L-G16RevA.03 25-Dec-2016

 -----------------------------------------------
 #p ROCCSD(T,MaxCyc=200)/cc-pVTZ SCF(MaxCyc=200)
 -----------------------------------------------

 ---------
 O2_O2_110
 ---------
 Symbolic Z-matrix:
 Charge =  0 Multiplicity = 3

                         Standard orientation:
 ---------------------------------------------------------------------
 Center     Atomic      Atomic             Coordinates (Angstroms)
 Number     Number       Type             X           Y           Z
 ---------------------------------------------------------------------
      1          8           0       -0.870000   -1.510000    0.000000
      2          8           0        0.290000   -1.510000    0.000000
      3          8           0        0.290000    0.930000    0.000000
      4          8           0        0.290000    2.090000    0.000000
 ---------------------------------------------------------------------

 SCF Done:  E(ROHF) =  -299.099029364     A.U. after   20 cycles
 E2 =    -0.1099434501D+01 EUMP2 =    -0.30019846386462D+03
 CCSD(T)
 CCSD(T)= -0.30022792693D+03

 The electronic state is 3-A'.
 Alpha  occ. eigenvalues --  -20.76196 -20.76040 -20.75439 -20.74742  -1.73922
 Alpha  occ. eigenvalues --   -1.73140  -1.14476  -1.13434  -0.84872  -0.83998
 Alpha  occ. eigenvalues --   -0.79242  -0.77875  -0.74135  -0.72802  -0.51765
 Alpha  occ. eigenvalues --   -0.50869  -0.30957
 Alpha virt. eigenvalues --   -0.10293   0.41312   0.44991   0.63343   0.67013
 Alpha virt. eigenvalues --    0.69504   0.70017   0.71790   0.74169   0.76253
 Alpha virt. eigenvalues --    0.77657   0.78514   0.82665   0.84133   0.86885

 Mulliken charges and spin densities:
               1          2
     1  O   -0.006698   0.473091
     2  O    0.026936   0.527139
     3  O   -0.020540   0.390898
     4  O    0.000302   0.608871
 Sum of Mulliken charges =  -0.00000   2.00000

 Dipole moment (field-independent basis, Debye):
    X=              0.0361    Y=             -0.1350    Z=              0.0000  Tot=              0.1398
 Quadrupole moment (field-independent basis, Debye-Ang):
   XX=            -20.6776   YY=            -20.1463   ZZ=            -19.6896
   XY=              0.1075   XZ=              0.0000   YZ=              0.0000

 Normal termination of Gaussian 16 at Tue Feb 13 15:25:42 2024.
