 Gaussian 16, Revision A.03,
 Gaussian 16:  ES64L-G16RevA.03 25-Dec-2016

 -----------------------------------------------
 #p ROCCSD(T,MaxCyc=200)/cc-pVTZ SCF(MaxCyc=200)
 -----------------------------------------------

 ---------
 O2_O2_265
 ---------
 Symbolic Z-matrix:
 Charge =  0 Multiplicity = 3

                         Standard orientation:
 ---------------------------------------------------------------------
 Center     Atomic      Atomic             Coordinates (Angstroms)
 Number     Number       Type             X           Y           Z
 ---------------------------------------------------------------------
      1          8           0        0.615183   -3.165183    0.000000
      2          8           0       -0.205061   -2.344939    0.000000
      3          8           0       -0.205061    2.175061   -0.000000
      4          8           0       -0.205061    3.335061   -0.000000
 ---------------------------------------------------------------------

 SCF Done:  E(ROHF) =  -299.252736959     A.U. after   25 cycles
 E2 =    -0.9206550511D+00 EUMP2 =    -0.30017339200992D+03
 CCSD(T)
 CCSD(T)= -0.30020027925D+03

 The electronic state is 3-A".
 Alpha  occ. eigenvalues --  -20.74015 -20.73938 -20.72945 -20.72829  -1.74514
 Alpha  occ. eigenvalues --   -1.69879  -1.17058  -1.08566  -0.83794  -0.83793
 Alpha  occ. eigenvalues --   -0.78656  -0.78138  -0.75186  -0.67408  -0.50989
 Alpha  occ. eigenvalues --   -0.50987  -0.44824
 Alpha virt. eigenvalues --    0.04951   0.40920   0.43691   0.67942   0.68008
 Alpha virt. eigenvalues --    0.70399   0.70561   0.71423   0.73040   0.77906
 Alpha virt. eigenvalues --    0.79220   0.79789   0.81003   0.82212   0.84717

 Mulliken charges and spin densities:
               1          2
     1  O   -0.000348   0.999599
     2  O    0.000364   1.000390
     3  O    0.000140   0.000011
     4  O   -0.000156  -0.000000
 Sum of Mulliken charges =  -0.00000   2.00000

 Dipole moment (field-independent basis, Debye):
    X=             -0.0019    Y=              0.0006    Z=             -0.0000  Tot=              0.0020
 Quadrupole moment (field-independent basis, Debye-Ang):
   XX=            -20.8139   YY=            -20.6262   ZZ=            -18.8837
   XY=              0.3030   XZ=             -0.0000   YZ=              0.0000

 SD=-300.1622147\CCSD(T)=-300.2002792\RMSD=4.898e-09\PG=CS [SG(O4)]\\@
 Normal termination of Gaussian 16 at Tue Feb 13 19:01:41 2024.
