 Gaussian 16, Revision A.03,
 Gaussian 16:  ES64L-G16RevA.03 25-Dec-2016

 -----------------------------------------------
 #p ROCCSD(T,MaxCyc=200)/cc-pVTZ SCF(MaxCyc=200)
 -----------------------------------------------

 --------
 O2_O2_56
 --------
 Symbolic Z-matrix:
 Charge =  0 Multiplicity = 3

                         Standard orientation:
 ---------------------------------------------------------------------
 Center     Atomic      Atomic             Coordinates (Angstroms)
 Number     Number       Type             X           Y           Z
 ---------------------------------------------------------------------
      1          8           0       -0.870000   -1.150000    0.000000
      2          8           0        0.290000   -1.150000    0.000000
      3          8           0        0.290000    0.570000    0.000000
      4          8           0        0.290000    1.730000    0.000000
 ---------------------------------------------------------------------

 SCF Done:  E(ROHF) =  -299.074103981     A.U. after   21 cycles
 E2 =    -0.1032474766D+01 EUMP2 =    -0.30010657874666D+03
 CCSD(T)
 CCSD(T)= -0.30013597376D+03

 The electronic state is 3-A'.
 Alpha  occ. eigenvalues --  -20.77000 -20.76422 -20.72173 -20.71601  -1.76141
 Alpha  occ. eigenvalues --   -1.70843  -1.18987  -1.11356  -0.86767  -0.83902
 Alpha  occ. eigenvalues --   -0.81763  -0.79308  -0.73161  -0.63764  -0.53369
 Alpha  occ. eigenvalues --   -0.48449  -0.35825
 Alpha virt. eigenvalues --   -0.03751   0.40923   0.48387   0.64343   0.65334
 Alpha virt. eigenvalues --    0.69899   0.70969   0.71869   0.76018   0.77919
 Alpha virt. eigenvalues --    0.78348   0.82671   0.86478   0.88228   0.96816

 Mulliken charges and spin densities:
               1          2
     1  O    0.027486   0.559702
     2  O    0.061151   0.442444
     3  O   -0.052252   0.307806
     4  O   -0.036385   0.690049
 Sum of Mulliken charges =  -0.00000   2.00000

 Dipole moment (field-independent basis, Debye):
    X=              0.0310    Y=             -0.5841    Z=              0.0000  Tot=              0.5849
 Quadrupole moment (field-independent basis, Debye-Ang):
   XX=            -20.3057   YY=            -21.0218   ZZ=            -19.5520
   XY=              0.2004   XZ=              0.0000   YZ=              0.0000

 Normal termination of Gaussian 16 at Tue Feb 13 13:28:36 2024.
