 Gaussian 16, Revision A.03,
 Gaussian 16:  ES64L-G16RevA.03 25-Dec-2016

 -----------------------------------------------
 #p ROCCSD(T,MaxCyc=200)/cc-pVTZ SCF(MaxCyc=200)
 -----------------------------------------------

 ---------
 O2_O2_164
 ---------
 Symbolic Z-matrix:
 Charge =  0 Multiplicity = 3

                         Standard orientation:
 ---------------------------------------------------------------------
 Center     Atomic      Atomic             Coordinates (Angstroms)
 Number     Number       Type             X           Y           Z
 ---------------------------------------------------------------------
      1          8           0       -0.870000   -1.870000    0.000000
      2          8           0        0.290000   -1.870000    0.000000
      3          8           0        0.290000    1.290000    0.000000
      4          8           0        0.290000    2.450000    0.000000
 ---------------------------------------------------------------------

 SCF Done:  E(ROHF) =  -299.252697367     A.U. after   28 cycles
 E2 =    -0.9214692761D+00 EUMP2 =    -0.30017416664320D+03
 CCSD(T)
 CCSD(T)= -0.30020091525D+03

 The electronic state is 3-A".
 Alpha  occ. eigenvalues --  -20.74423 -20.74243 -20.72845 -20.72728  -1.74858
 Alpha  occ. eigenvalues --   -1.69771  -1.17441  -1.08463  -0.84138  -0.84138
 Alpha  occ. eigenvalues --   -0.78581  -0.78551  -0.75076  -0.67258  -0.51344
 Alpha  occ. eigenvalues --   -0.51342  -0.44723
 Alpha virt. eigenvalues --    0.05037   0.39471   0.43578   0.62883   0.66889
 Alpha virt. eigenvalues --    0.67114   0.70596   0.72439   0.75410   0.76935
 Alpha virt. eigenvalues --    0.79872   0.80339   0.80813   0.82837   0.86667

 Mulliken charges and spin densities:
               1          2
     1  O   -0.000547   0.000049
     2  O    0.001247   0.000095
     3  O   -0.007403   0.993488
     4  O    0.006703   1.006368
 Sum of Mulliken charges =  -0.00000   2.00000

 Dipole moment (field-independent basis, Debye):
    X=              0.0089    Y=              0.0469    Z=              0.0000  Tot=              0.0478
 Quadrupole moment (field-independent basis, Debye-Ang):
   XX=            -20.3066   YY=            -19.3449   ZZ=            -20.5114
   XY=              0.0093   XZ=              0.0000   YZ=              0.0000

 CCSD(T)=-300.2009153\RMSD=2.172e-09\PG=CS [SG(O4)]\\@
 Normal termination of Gaussian 16 at Tue Feb 13 17:01:50 2024.
