 Gaussian 16, Revision A.03,
 Gaussian 16:  ES64L-G16RevA.03 25-Dec-2016

 -----------------------------------------------
 #p ROCCSD(T,MaxCyc=200)/cc-pVTZ SCF(MaxCyc=200)
 -----------------------------------------------

 ---------
 O2_O2_259
 ---------
 Symbolic Z-matrix:
 Charge =  0 Multiplicity = 3

                         Standard orientation:
 ---------------------------------------------------------------------
 Center     Atomic      Atomic             Coordinates (Angstroms)
 Number     Number       Type             X           Y           Z
 ---------------------------------------------------------------------
      1          8           0        0.615183   -3.125183    0.000000
      2          8           0       -0.205061   -2.304939    0.000000
      3          8           0       -0.205061    2.135061   -0.000000
      4          8           0       -0.205061    3.295061   -0.000000
 ---------------------------------------------------------------------

 SCF Done:  E(ROHF) =  -299.252740049     A.U. after   25 cycles
 E2 =    -0.9206643738D+00 EUMP2 =    -0.30017340442229D+03
 CCSD(T)
 CCSD(T)= -0.30020028972D+03

 The electronic state is 3-A".
 Alpha  occ. eigenvalues --  -20.74014 -20.73937 -20.72944 -20.72828  -1.74513
 Alpha  occ. eigenvalues --   -1.69879  -1.17056  -1.08565  -0.83793  -0.83791
 Alpha  occ. eigenvalues --   -0.78655  -0.78137  -0.75185  -0.67407  -0.50988
 Alpha  occ. eigenvalues --   -0.50986  -0.44823
 Alpha virt. eigenvalues --    0.04952   0.40763   0.43806   0.67907   0.68009
 Alpha virt. eigenvalues --    0.70398   0.70562   0.71246   0.73161   0.77875
 Alpha virt. eigenvalues --    0.79147   0.79788   0.81279   0.82216   0.84720

 Mulliken charges and spin densities:
               1          2
     1  O   -0.000348   0.999589
     2  O    0.000371   1.000396
     3  O    0.000134   0.000015
     4  O   -0.000157  -0.000000
 Sum of Mulliken charges =  -0.00000   2.00000

 Dipole moment (field-independent basis, Debye):
    X=             -0.0019    Y=              0.0005    Z=             -0.0000  Tot=              0.0020
 Quadrupole moment (field-independent basis, Debye-Ang):
   XX=            -20.8139   YY=            -20.6266   ZZ=            -18.8837
   XY=              0.3030   XZ=              0.0000   YZ=              0.0000

 SD=-300.1622242\CCSD(T)=-300.2002897\RMSD=4.121e-09\PG=CS [SG(O4)]\\@
 Normal termination of Gaussian 16 at Tue Feb 13 18:54:37 2024.
