 Gaussian 16, Revision A.03,
 Gaussian 16:  ES64L-G16RevA.03 25-Dec-2016

 -----------------------------------------------
 #p ROCCSD(T,MaxCyc=200)/cc-pVTZ SCF(MaxCyc=200)
 -----------------------------------------------

 ---------
 O2_O2_130
 ---------
 Symbolic Z-matrix:
 Charge =  0 Multiplicity = 3

                         Standard orientation:
 ---------------------------------------------------------------------
 Center     Atomic      Atomic             Coordinates (Angstroms)
 Number     Number       Type             X           Y           Z
 ---------------------------------------------------------------------
      1          8           0        0.615183   -2.265183   -0.000000
      2          8           0       -0.205061   -1.444939    0.000000
      3          8           0       -0.205061    1.275061    0.000000
      4          8           0       -0.205061    2.435061    0.000000
 ---------------------------------------------------------------------

 SCF Done:  E(ROHF) =  -299.074122875     A.U. after   20 cycles
 E2 =    -0.1156192229D+01 EUMP2 =    -0.30023031510434D+03
 CCSD(T)
 CCSD(T)= -0.30024193264D+03

 The electronic state is 3-A'.
 Alpha  occ. eigenvalues --  -20.75701 -20.75496 -20.75181 -20.75058  -1.73421
 Alpha  occ. eigenvalues --   -1.73267  -1.14298  -1.13133  -0.84397  -0.84152
 Alpha  occ. eigenvalues --   -0.78511  -0.76689  -0.74591  -0.73746  -0.51302
 Alpha  occ. eigenvalues --   -0.50937  -0.28598
 Alpha virt. eigenvalues --   -0.12630   0.40179   0.46299   0.64612   0.66739
 Alpha virt. eigenvalues --    0.67523   0.70253   0.71544   0.74478   0.77331
 Alpha virt. eigenvalues --    0.78603   0.79176   0.83814   0.85761   0.87241

 Mulliken charges and spin densities:
               1          2
     1  O    0.006934   0.557092
     2  O   -0.003308   0.442993
     3  O   -0.006688   0.431164
     4  O    0.003062   0.568750
 Sum of Mulliken charges =  -0.00000   2.00000

 Dipole moment (field-independent basis, Debye):
    X=              0.0300    Y=             -0.0299    Z=             -0.0000  Tot=              0.0424
 Quadrupole moment (field-independent basis, Debye-Ang):
   XX=            -20.0398   YY=            -20.3673   ZZ=            -20.1357
   XY=              0.2948   XZ=             -0.0000   YZ=              0.0000

 CCSD=-300.1125236\CCSD(T)=-300.2419326\RMSD=5.833e-09\PG=CS [SG(O4)]\\
 Normal termination of Gaussian 16 at Tue Feb 13 16:12:23 2024.
