 Gaussian 16, Revision A.03,
 Gaussian 16:  ES64L-G16RevA.03 25-Dec-2016

 -----------------------------------------------
 #p ROCCSD(T,MaxCyc=200)/cc-pVTZ SCF(MaxCyc=200)
 -----------------------------------------------

 --------
 O2_O2_29
 --------
 Symbolic Z-matrix:
 Charge =  0 Multiplicity = 3

                         Standard orientation:
 ---------------------------------------------------------------------
 Center     Atomic      Atomic             Coordinates (Angstroms)
 Number     Number       Type             X           Y           Z
 ---------------------------------------------------------------------
      1          8           0       -0.870000   -0.970000    0.000000
      2          8           0        0.290000   -0.970000    0.000000
      3          8           0        0.290000    0.390000    0.000000
      4          8           0        0.290000    1.550000    0.000000
 ---------------------------------------------------------------------

 SCF Done:  E(ROHF) =  -298.960682720     A.U. after   29 cycles
 E2 =    -0.9394958822D+00 EUMP2 =    -0.29990017860180D+03
 CCSD(T)
 CCSD(T)= -0.29994466248D+03

 The electronic state is 3-A".
 Alpha  occ. eigenvalues --  -20.81018 -20.78589 -20.77562 -20.57896  -1.85160
 Alpha  occ. eigenvalues --   -1.71057  -1.30503  -1.08344  -0.93262  -0.92038
 Alpha  occ. eigenvalues --   -0.87080  -0.77869  -0.72359  -0.56059  -0.55944
 Alpha  occ. eigenvalues --   -0.48252  -0.40296
 Alpha virt. eigenvalues --    0.09076   0.43410   0.45355   0.61533   0.63547
 Alpha virt. eigenvalues --    0.66691   0.71018   0.72088   0.73393   0.81588
 Alpha virt. eigenvalues --    0.83862   0.85373   0.85658   0.88445   0.99114

 Mulliken charges and spin densities:
               1          2
     1  O   -0.362200   0.038057
     2  O    0.161765   0.059180
     3  O    0.205097   0.929658
     4  O   -0.004663   0.973105
 Sum of Mulliken charges =  -0.00000   2.00000

 Dipole moment (field-independent basis, Debye):
    X=              1.9193    Y=              1.5135    Z=              0.0000  Tot=              2.4442
 Quadrupole moment (field-independent basis, Debye-Ang):
   XX=            -21.5312   YY=            -20.7499   ZZ=            -20.0834
   XY=             -1.4858   XZ=              0.0000   YZ=              0.0000

 Normal termination of Gaussian 16 at Tue Feb 13 12:40:25 2024.
