 Gaussian 16, Revision A.03,
 Gaussian 16:  ES64L-G16RevA.03 25-Dec-2016

 -----------------------------------------------
 #p ROCCSD(T,MaxCyc=200)/cc-pVTZ SCF(MaxCyc=200)
 -----------------------------------------------

 --------
 O2_O2_72
 --------
 Symbolic Z-matrix:
 Charge =  0 Multiplicity = 3

                         Standard orientation:
 ---------------------------------------------------------------------
 Center     Atomic      Atomic             Coordinates (Angstroms)
 Number     Number       Type             X           Y           Z
 ---------------------------------------------------------------------
      1          8           0        0.000000    0.000000    2.140000
      2          8           0        0.000000    0.000000    0.980000
      3          8           0        0.000000    0.000000   -0.980000
      4          8           0        0.000000    0.000000   -2.140000
 ---------------------------------------------------------------------

 SCF Done:  E(ROHF) =  -299.096065859     A.U. after   15 cycles
 E2 =    -0.1069927436D+01 EUMP2 =    -0.30016599329457D+03
 CCSD(T)
 CCSD(T)= -0.30020098105D+03

 Unable to determine electronic state:  an orbital has unidentified symmetry.
 Alpha  occ. eigenvalues --  -20.75522 -20.75519 -20.74545 -20.74544  -1.73778
 Alpha  occ. eigenvalues --   -1.73001  -1.17944  -1.10516  -0.84945  -0.83672
 Alpha  occ. eigenvalues --   -0.82434  -0.75458  -0.72850  -0.71438  -0.52754
 Alpha  occ. eigenvalues --   -0.49363  -0.32232
 Alpha virt. eigenvalues --   -0.08094   0.44651   0.48557   0.64527   0.67252
 Alpha virt. eigenvalues --    0.69576   0.72012   0.72296   0.75595   0.76567
 Alpha virt. eigenvalues --    0.79457   0.84577   0.85843   0.92958   0.94737

 Mulliken charges and spin densities:
               1          2
     1  O   -0.020502   0.633983
     2  O    0.020502   0.366017
     3  O    0.020502   0.366017
     4  O   -0.020502   0.633983
 Sum of Mulliken charges =   0.00000   2.00000

 Dipole moment (field-independent basis, Debye):
    X=             -0.0000    Y=             -0.0000    Z=              0.0000  Tot=              0.0000
 Quadrupole moment (field-independent basis, Debye-Ang):
   XX=            -19.6458   YY=            -20.2173   ZZ=            -20.7110
   XY=              0.0000   XZ=              0.0000   YZ=              0.0000

 PMP2-0=-300.1659933\MP4SDQ=-300.1142859\CCSD=-300.1053759\CCSD(T)=-300
 Normal termination of Gaussian 16 at Tue Feb 13 14:01:38 2024.
