 Gaussian 16, Revision A.03,
 Gaussian 16:  ES64L-G16RevA.03 25-Dec-2016

 -----------------------------------------------
 #p ROCCSD(T,MaxCyc=200)/cc-pVTZ SCF(MaxCyc=200)
 -----------------------------------------------

 ---------
 O2_O2_169
 ---------
 Symbolic Z-matrix:
 Charge =  0 Multiplicity = 3

                         Standard orientation:
 ---------------------------------------------------------------------
 Center     Atomic      Atomic             Coordinates (Angstroms)
 Number     Number       Type             X           Y           Z
 ---------------------------------------------------------------------
      1          8           0        0.615183   -2.525183    0.000000
      2          8           0       -0.205061   -1.704939    0.000000
      3          8           0       -0.205061    1.535061   -0.000000
      4          8           0       -0.205061    2.695061   -0.000000
 ---------------------------------------------------------------------

 SCF Done:  E(ROHF) =  -299.252644195     A.U. after   26 cycles
 E2 =    -0.9211821843D+00 EUMP2 =    -0.30017382637887D+03
 CCSD(T)
 CCSD(T)= -0.30020063721D+03

 The electronic state is 3-A".
 Alpha  occ. eigenvalues --  -20.73978 -20.73898 -20.72917 -20.72801  -1.74476
 Alpha  occ. eigenvalues --   -1.69856  -1.17021  -1.08540  -0.83759  -0.83758
 Alpha  occ. eigenvalues --   -0.78631  -0.78123  -0.75127  -0.67384  -0.50952
 Alpha  occ. eigenvalues --   -0.50941  -0.44797
 Alpha virt. eigenvalues --    0.04972   0.37977   0.46110   0.64502   0.67590
 Alpha virt. eigenvalues --    0.68594   0.70694   0.70943   0.74946   0.78035
 Alpha virt. eigenvalues --    0.78656   0.79044   0.83553   0.86088   0.86150

 Mulliken charges and spin densities:
               1          2
     1  O   -0.000239   0.998940
     2  O    0.000466   1.000845
     3  O   -0.000791   0.000178
     4  O    0.000564   0.000037
 Sum of Mulliken charges =  -0.00000   2.00000

 Dipole moment (field-independent basis, Debye):
    X=             -0.0053    Y=             -0.0006    Z=             -0.0000  Tot=              0.0053
 Quadrupole moment (field-independent basis, Debye-Ang):
   XX=            -20.8148   YY=            -20.6542   ZZ=            -18.8845
   XY=              0.3076   XZ=             -0.0000   YZ=              0.0000

 CCSD=-300.1625104\CCSD(T)=-300.2006372\RMSD=2.413e-09\PG=CS [SG(O4)]\\
 Normal termination of Gaussian 16 at Tue Feb 13 17:07:40 2024.
