 Gaussian 16, Revision A.03,
 Gaussian 16:  ES64L-G16RevA.03 25-Dec-2016

 -----------------------------------------------
 #p ROCCSD(T,MaxCyc=200)/cc-pVTZ SCF(MaxCyc=200)
 -----------------------------------------------

 ---------
 O2_O2_100
 ---------
 Symbolic Z-matrix:
 Charge =  0 Multiplicity = 3

                         Standard orientation:
 ---------------------------------------------------------------------
 Center     Atomic      Atomic             Coordinates (Angstroms)
 Number     Number       Type             X           Y           Z
 ---------------------------------------------------------------------
      1          8           0        0.615183   -2.065183    0.000000
      2          8           0       -0.205061   -1.244939    0.000000
      3          8           0       -0.205061    1.075061   -0.000000
      4          8           0       -0.205061    2.235061   -0.000000
 ---------------------------------------------------------------------

 SCF Done:  E(ROHF) =  -299.088343944     A.U. after   20 cycles
 E2 =    -0.1113469617D+01 EUMP2 =    -0.30020181356110D+03
 CCSD(T)
 CCSD(T)= -0.30022864831D+03

 The electronic state is 3-A'.
 Alpha  occ. eigenvalues --  -20.76029 -20.75506 -20.75000 -20.74854  -1.73595
 Alpha  occ. eigenvalues --   -1.73199  -1.15322  -1.12372  -0.84783  -0.84098
 Alpha  occ. eigenvalues --   -0.79544  -0.75399  -0.74913  -0.73442  -0.51498
 Alpha  occ. eigenvalues --   -0.50657  -0.30127
 Alpha virt. eigenvalues --   -0.10872   0.42169   0.47076   0.63994   0.66611
 Alpha virt. eigenvalues --    0.69211   0.71442   0.72105   0.74809   0.77867
 Alpha virt. eigenvalues --    0.79083   0.80000   0.85826   0.86614   0.89913

 Mulliken charges and spin densities:
               1          2
     1  O    0.005641   0.573120
     2  O    0.001772   0.427092
     3  O   -0.001308   0.403052
     4  O   -0.006105   0.596737
 Sum of Mulliken charges =   0.00000   2.00000

 Dipole moment (field-independent basis, Debye):
    X=              0.0308    Y=             -0.0409    Z=              0.0000  Tot=              0.0512
 Quadrupole moment (field-independent basis, Debye-Ang):
   XX=            -20.0432   YY=            -20.3784   ZZ=            -20.1825
   XY=              0.3125   XZ=              0.0000   YZ=              0.0000

 6\CCSD=-300.114007\CCSD(T)=-300.2286483\RMSD=7.698e-09\PG=CS [SG(O4)]\
 Normal termination of Gaussian 16 at Tue Feb 13 15:02:31 2024.
