 Gaussian 16, Revision A.03,
 Gaussian 16:  ES64L-G16RevA.03 25-Dec-2016

 -----------------------------------------------
 #p ROCCSD(T,MaxCyc=200)/cc-pVTZ SCF(MaxCyc=200)
 -----------------------------------------------

 ---------
 O2_O2_248
 ---------
 Symbolic Z-matrix:
 Charge =  0 Multiplicity = 3

                         Standard orientation:
 ---------------------------------------------------------------------
 Center     Atomic      Atomic             Coordinates (Angstroms)
 Number     Number       Type             X           Y           Z
 ---------------------------------------------------------------------
      1          8           0       -0.870000   -2.430000    0.000000
      2          8           0        0.290000   -2.430000    0.000000
      3          8           0        0.290000    1.850000    0.000000
      4          8           0        0.290000    3.010000    0.000000
 ---------------------------------------------------------------------

 SCF Done:  E(ROHF) =  -299.252752878     A.U. after   28 cycles
 E2 =    -0.9206937949D+00 EUMP2 =    -0.30017344667294D+03
 CCSD(T)
 CCSD(T)= -0.30020033102D+03

 The electronic state is 3-A".
 Alpha  occ. eigenvalues --  -20.74001 -20.73925 -20.72993 -20.72877  -1.74499
 Alpha  occ. eigenvalues --   -1.69925  -1.17043  -1.08615  -0.83780  -0.83775
 Alpha  occ. eigenvalues --   -0.78702  -0.78125  -0.75237  -0.67454  -0.50975
 Alpha  occ. eigenvalues --   -0.50971  -0.44871
 Alpha virt. eigenvalues --    0.04903   0.41414   0.43017   0.67183   0.68013
 Alpha virt. eigenvalues --    0.70348   0.70523   0.72078   0.73176   0.78014
 Alpha virt. eigenvalues --    0.79202   0.79802   0.80744   0.82337   0.84670

 Mulliken charges and spin densities:
               1          2
     1  O    0.000166   1.000180
     2  O   -0.000102   0.999812
     3  O   -0.000437   0.000008
     4  O    0.000373   0.000000
 Sum of Mulliken charges =  -0.00000   2.00000

 Dipole moment (field-independent basis, Debye):
    X=             -0.0003    Y=              0.0039    Z=              0.0000  Tot=              0.0039
 Quadrupole moment (field-independent basis, Debye-Ang):
   XX=            -21.1125   YY=            -20.2971   ZZ=            -18.8837
   XY=              0.0028   XZ=              0.0000   YZ=              0.0000

 CCSD(T)=-300.200331\RMSD=4.417e-09\PG=CS [SG(O4)]\\@
 Normal termination of Gaussian 16 at Tue Feb 13 18:42:36 2024.
