 Gaussian 16, Revision A.03,
 Gaussian 16:  ES64L-G16RevA.03 25-Dec-2016

 -----------------------------------------------
 #p ROCCSD(T,MaxCyc=200)/cc-pVTZ SCF(MaxCyc=200)
 -----------------------------------------------

 ---------
 O2_O2_107
 ---------
 Symbolic Z-matrix:
 Charge =  0 Multiplicity = 3

                         Standard orientation:
 ---------------------------------------------------------------------
 Center     Atomic      Atomic             Coordinates (Angstroms)
 Number     Number       Type             X           Y           Z
 ---------------------------------------------------------------------
      1          8           0       -0.870000   -1.490000    0.000000
      2          8           0        0.290000   -1.490000    0.000000
      3          8           0        0.290000    0.910000    0.000000
      4          8           0        0.290000    2.070000    0.000000
 ---------------------------------------------------------------------

 SCF Done:  E(ROHF) =  -299.100620718     A.U. after   20 cycles
 E2 =    -0.1095649466D+01 EUMP2 =    -0.30019627018425D+03
 CCSD(T)
 CCSD(T)= -0.30022628235D+03

 The electronic state is 3-A'.
 Alpha  occ. eigenvalues --  -20.76219 -20.76050 -20.75410 -20.74691  -1.73954
 Alpha  occ. eigenvalues --   -1.73110  -1.14544  -1.13397  -0.84908  -0.83964
 Alpha  occ. eigenvalues --   -0.79398  -0.77900  -0.74126  -0.72598  -0.51793
 Alpha  occ. eigenvalues --   -0.50834  -0.31156
 Alpha virt. eigenvalues --   -0.10066   0.41338   0.45194   0.63260   0.67279
 Alpha virt. eigenvalues --    0.69902   0.70079   0.71714   0.73877   0.76332
 Alpha virt. eigenvalues --    0.77659   0.78519   0.83151   0.84301   0.86903

 Mulliken charges and spin densities:
               1          2
     1  O   -0.006941   0.471489
     2  O    0.028322   0.528771
     3  O   -0.020517   0.387377
     4  O   -0.000864   0.612363
 Sum of Mulliken charges =  -0.00000   2.00000

 Dipole moment (field-independent basis, Debye):
    X=              0.0398    Y=             -0.1410    Z=              0.0000  Tot=              0.1465
 Quadrupole moment (field-independent basis, Debye-Ang):
   XX=            -20.6758   YY=            -20.1576   ZZ=            -19.6883
   XY=              0.1124   XZ=              0.0000   YZ=              0.0000

 Normal termination of Gaussian 16 at Tue Feb 13 15:19:08 2024.
