 Gaussian 16, Revision A.03,
 Gaussian 16:  ES64L-G16RevA.03 25-Dec-2016

 -----------------------------------------------
 #p ROCCSD(T,MaxCyc=200)/cc-pVTZ SCF(MaxCyc=200)
 -----------------------------------------------

 ---------
 O2_O2_202
 ---------
 Symbolic Z-matrix:
 Charge =  0 Multiplicity = 3

                         Standard orientation:
 ---------------------------------------------------------------------
 Center     Atomic      Atomic             Coordinates (Angstroms)
 Number     Number       Type             X           Y           Z
 ---------------------------------------------------------------------
      1          8           0        0.615183   -2.745183   -0.000000
      2          8           0       -0.205061   -1.924939   -0.000000
      3          8           0       -0.205061    1.755061    0.000000
      4          8           0       -0.205061    2.915061    0.000000
 ---------------------------------------------------------------------

 SCF Done:  E(ROHF) =  -299.252770816     A.U. after   28 cycles
 E2 =    -0.9208724988D+00 EUMP2 =    -0.30017364331463D+03
 CCSD(T)
 CCSD(T)= -0.30020049302D+03

 The electronic state is 3-A".
 Alpha  occ. eigenvalues --  -20.74004 -20.73926 -20.72932 -20.72816  -1.74500
 Alpha  occ. eigenvalues --   -1.69867  -1.17041  -1.08551  -0.83782  -0.83776
 Alpha  occ. eigenvalues --   -0.78643  -0.78125  -0.75165  -0.67396  -0.50976
 Alpha  occ. eigenvalues --   -0.50968  -0.44811
 Alpha virt. eigenvalues --    0.04964   0.38293   0.45380   0.65873   0.67942
 Alpha virt. eigenvalues --    0.69336   0.70542   0.70588   0.74478   0.77914
 Alpha virt. eigenvalues --    0.78597   0.79616   0.82539   0.85009   0.86091

 Mulliken charges and spin densities:
               1          2
     1  O   -0.000095   0.999420
     2  O    0.000292   1.000440
     3  O   -0.000467   0.000136
     4  O    0.000270   0.000004
 Sum of Mulliken charges =  -0.00000   2.00000

 Dipole moment (field-independent basis, Debye):
    X=             -0.0030    Y=             -0.0022    Z=              0.0000  Tot=              0.0037
 Quadrupole moment (field-independent basis, Debye-Ang):
   XX=            -20.8139   YY=            -20.6314   ZZ=            -18.8841
   XY=              0.3042   XZ=              0.0000   YZ=             -0.0000

 4\CCSD=-300.1624038\CCSD(T)=-300.200493\RMSD=3.941e-09\PG=CS [SG(O4)]\
 Normal termination of Gaussian 16 at Tue Feb 13 17:47:02 2024.
