 Gaussian 16, Revision A.03,
 Gaussian 16:  ES64L-G16RevA.03 25-Dec-2016

 -----------------------------------------------
 #p ROCCSD(T,MaxCyc=200)/cc-pVTZ SCF(MaxCyc=200)
 -----------------------------------------------

 ---------
 O2_O2_199
 ---------
 Symbolic Z-matrix:
 Charge =  0 Multiplicity = 3

                         Standard orientation:
 ---------------------------------------------------------------------
 Center     Atomic      Atomic             Coordinates (Angstroms)
 Number     Number       Type             X           Y           Z
 ---------------------------------------------------------------------
      1          8           0        0.615183   -2.725183    0.000000
      2          8           0       -0.205061   -1.904939    0.000000
      3          8           0       -0.205061    1.735061   -0.000000
      4          8           0       -0.205061    2.895061   -0.000000
 ---------------------------------------------------------------------

 SCF Done:  E(ROHF) =  -299.252768614     A.U. after   28 cycles
 E2 =    -0.9208926127D+00 EUMP2 =    -0.30017366122686D+03
 CCSD(T)
 CCSD(T)= -0.30020050810D+03

 The electronic state is 3-A".
 Alpha  occ. eigenvalues --  -20.74003 -20.73925 -20.72931 -20.72815  -1.74499
 Alpha  occ. eigenvalues --   -1.69866  -1.17040  -1.08550  -0.83780  -0.83775
 Alpha  occ. eigenvalues --   -0.78643  -0.78124  -0.75163  -0.67395  -0.50975
 Alpha  occ. eigenvalues --   -0.50966  -0.44810
 Alpha virt. eigenvalues --    0.04965   0.38182   0.45458   0.65695   0.67928
 Alpha virt. eigenvalues --    0.69279   0.70562   0.70592   0.74531   0.77951
 Alpha virt. eigenvalues --    0.78564   0.79585   0.82594   0.85061   0.86159

 Mulliken charges and spin densities:
               1          2
     1  O   -0.000080   0.999394
     2  O    0.000288   1.000456
     3  O   -0.000529   0.000145
     4  O    0.000321   0.000005
 Sum of Mulliken charges =  -0.00000   2.00000

 Dipole moment (field-independent basis, Debye):
    X=             -0.0032    Y=             -0.0023    Z=             -0.0000  Tot=              0.0039
 Quadrupole moment (field-independent basis, Debye-Ang):
   XX=            -20.8139   YY=            -20.6324   ZZ=            -18.8841
   XY=              0.3044   XZ=             -0.0000   YZ=              0.0000

 2\CCSD=-300.1624164\CCSD(T)=-300.2005081\RMSD=4.730e-09\PG=CS [SG(O4)]
 Normal termination of Gaussian 16 at Tue Feb 13 17:43:28 2024.
