 Gaussian 16, Revision A.03,
 Gaussian 16:  ES64L-G16RevA.03 25-Dec-2016

 -----------------------------------------------
 #p ROCCSD(T,MaxCyc=200)/cc-pVTZ SCF(MaxCyc=200)
 -----------------------------------------------

 --------
 O2_O2_94
 --------
 Symbolic Z-matrix:
 Charge =  0 Multiplicity = 3

                         Standard orientation:
 ---------------------------------------------------------------------
 Center     Atomic      Atomic             Coordinates (Angstroms)
 Number     Number       Type             X           Y           Z
 ---------------------------------------------------------------------
      1          8           0        0.615183   -2.025183    0.000000
      2          8           0       -0.205061   -1.204939    0.000000
      3          8           0       -0.205061    1.035061   -0.000000
      4          8           0       -0.205061    2.195061   -0.000000
 ---------------------------------------------------------------------

 SCF Done:  E(ROHF) =  -299.090772597     A.U. after   20 cycles
 E2 =    -0.1104744873D+01 EUMP2 =    -0.30019551746949D+03
 CCSD(T)
 CCSD(T)= -0.30022430323D+03

 The electronic state is 3-A'.
 Alpha  occ. eigenvalues --  -20.76110 -20.75466 -20.74911 -20.74770  -1.73645
 Alpha  occ. eigenvalues --   -1.73158  -1.15688  -1.12117  -0.84922  -0.84075
 Alpha  occ. eigenvalues --   -0.79819  -0.75007  -0.74963  -0.73343  -0.51538
 Alpha  occ. eigenvalues --   -0.50544  -0.30524
 Alpha virt. eigenvalues --   -0.10404   0.42488   0.47245   0.63896   0.66567
 Alpha virt. eigenvalues --    0.69542   0.71742   0.72220   0.74899   0.77986
 Alpha virt. eigenvalues --    0.79238   0.79777   0.86074   0.87914   0.90752

 Mulliken charges and spin densities:
               1          2
     1  O    0.004212   0.575431
     2  O    0.004307   0.424650
     3  O    0.000094   0.395479
     4  O   -0.008612   0.604440
 Sum of Mulliken charges =  -0.00000   2.00000

 Dipole moment (field-independent basis, Debye):
    X=              0.0271    Y=             -0.0430    Z=              0.0000  Tot=              0.0508
 Quadrupole moment (field-independent basis, Debye-Ang):
   XX=            -20.0450   YY=            -20.4127   ZZ=            -20.1899
   XY=              0.3255   XZ=              0.0000   YZ=              0.0000

 \CCSD=-300.1133505\CCSD(T)=-300.2243032\RMSD=8.714e-09\PG=CS [SG(O4)]\
 Normal termination of Gaussian 16 at Tue Feb 13 14:48:23 2024.
