 Gaussian 16, Revision A.03,
 Gaussian 16:  ES64L-G16RevA.03 25-Dec-2016

 -----------------------------------------------
 #p ROCCSD(T,MaxCyc=200)/cc-pVTZ SCF(MaxCyc=200)
 -----------------------------------------------

 --------
 O2_O2_37
 --------
 Symbolic Z-matrix:
 Charge =  0 Multiplicity = 3

                         Standard orientation:
 ---------------------------------------------------------------------
 Center     Atomic      Atomic             Coordinates (Angstroms)
 Number     Number       Type             X           Y           Z
 ---------------------------------------------------------------------
      1          8           0        0.615183   -1.645183    0.000000
      2          8           0       -0.205061   -0.824939    0.000000
      3          8           0       -0.205061    0.655061   -0.000000
      4          8           0       -0.205061    1.815061   -0.000000
 ---------------------------------------------------------------------

 SCF Done:  E(ROHF) =  -299.072403935     A.U. after   22 cycles
 E2 =    -0.9436692002D+00 EUMP2 =    -0.30001607313482D+03
 CCSD(T)
 CCSD(T)= -0.30004706950D+03

 The electronic state is 3-A".
 Alpha  occ. eigenvalues --  -20.76160 -20.75249 -20.73066 -20.65991  -1.78140
 Alpha  occ. eigenvalues --   -1.68537  -1.29837  -1.04971  -0.87899  -0.87270
 Alpha  occ. eigenvalues --   -0.85080  -0.76972  -0.70607  -0.56441  -0.54606
 Alpha  occ. eigenvalues --   -0.52725  -0.41181
 Alpha virt. eigenvalues --    0.08731   0.45779   0.50367   0.64386   0.65086
 Alpha virt. eigenvalues --    0.68992   0.72785   0.72928   0.74230   0.79850
 Alpha virt. eigenvalues --    0.80307   0.82511   0.86203   0.93768   0.97323

 Mulliken charges and spin densities:
               1          2
     1  O   -0.142576   0.015698
     2  O    0.064466   0.030625
     3  O    0.071166   0.905152
     4  O    0.006945   1.048525
 Sum of Mulliken charges =   0.00000   2.00000

 Dipole moment (field-independent basis, Debye):
    X=             -0.4956    Y=              1.3330    Z=             -0.0000  Tot=              1.4221
 Quadrupole moment (field-independent basis, Debye-Ang):
   XX=            -20.0329   YY=            -21.8090   ZZ=            -20.2896
   XY=              1.2891   XZ=              0.0000   YZ=              0.0000

 \CCSD=-300.0035228\CCSD(T)=-300.0470695\RMSD=7.291e-09\PG=CS [SG(O4)]\
 Normal termination of Gaussian 16 at Tue Feb 13 12:53:49 2024.
