 Gaussian 16, Revision A.03,
 Gaussian 16:  ES64L-G16RevA.03 25-Dec-2016

 -----------------------------------------------
 #p ROCCSD(T,MaxCyc=200)/cc-pVTZ SCF(MaxCyc=200)
 -----------------------------------------------

 --------
 O2_O2_83
 --------
 Symbolic Z-matrix:
 Charge =  0 Multiplicity = 3

                         Standard orientation:
 ---------------------------------------------------------------------
 Center     Atomic      Atomic             Coordinates (Angstroms)
 Number     Number       Type             X           Y           Z
 ---------------------------------------------------------------------
      1          8           0       -0.870000   -1.330000    0.000000
      2          8           0        0.290000   -1.330000    0.000000
      3          8           0        0.290000    0.750000    0.000000
      4          8           0        0.290000    1.910000    0.000000
 ---------------------------------------------------------------------

 SCF Done:  E(ROHF) =  -299.107715064     A.U. after   20 cycles
 E2 =    -0.1066229839D+01 EUMP2 =    -0.30017394490293D+03
 CCSD(T)
 CCSD(T)= -0.30020510260D+03

 The electronic state is 3-A'.
 Alpha  occ. eigenvalues --  -20.76373 -20.76007 -20.74839 -20.74011  -1.74356
 Alpha  occ. eigenvalues --   -1.72645  -1.15527  -1.12860  -0.85318  -0.83456
 Alpha  occ. eigenvalues --   -0.81191  -0.78132  -0.73970  -0.69968  -0.52098
 Alpha  occ. eigenvalues --   -0.50325  -0.33029
 Alpha virt. eigenvalues --   -0.07816   0.41440   0.46626   0.63216   0.69052
 Alpha virt. eigenvalues --    0.69873   0.70660   0.71354   0.74200   0.76993
 Alpha virt. eigenvalues --    0.78584   0.78882   0.85401   0.87112   0.89098

 Mulliken charges and spin densities:
               1          2
     1  O   -0.007468   0.465888
     2  O    0.041264   0.534784
     3  O   -0.021368   0.354336
     4  O   -0.012428   0.644992
 Sum of Mulliken charges =  -0.00000   2.00000

 Dipole moment (field-independent basis, Debye):
    X=              0.0754    Y=             -0.2125    Z=              0.0000  Tot=              0.2255
 Quadrupole moment (field-independent basis, Debye-Ang):
   XX=            -20.6133   YY=            -20.3733   ZZ=            -19.6626
   XY=              0.1508   XZ=              0.0000   YZ=              0.0000

 Normal termination of Gaussian 16 at Tue Feb 13 14:25:13 2024.
