 Gaussian 16, Revision A.03,
 Gaussian 16:  ES64L-G16RevA.03 25-Dec-2016

 -----------------------------------------------
 #p ROCCSD(T,MaxCyc=200)/cc-pVTZ SCF(MaxCyc=200)
 -----------------------------------------------

 --------
 O2_O2_63
 --------
 Symbolic Z-matrix:
 Charge =  0 Multiplicity = 3

                         Standard orientation:
 ---------------------------------------------------------------------
 Center     Atomic      Atomic             Coordinates (Angstroms)
 Number     Number       Type             X           Y           Z
 ---------------------------------------------------------------------
      1          8           0        0.000000    0.000000    2.080000
      2          8           0        0.000000    0.000000    0.920000
      3          8           0        0.000000    0.000000   -0.920000
      4          8           0        0.000000    0.000000   -2.080000
 ---------------------------------------------------------------------

 SCF Done:  E(ROHF) =  -299.061843692     A.U. after   13 cycles
 E2 =    -0.1073356682D+01 EUMP2 =    -0.30013520037342D+03
 CCSD(T)
 CCSD(T)= -0.30014299787D+03

 Unable to determine electronic state:  an orbital has unidentified symmetry.
 Alpha  occ. eigenvalues --  -20.77058 -20.77056 -20.73421 -20.73421  -1.74228
 Alpha  occ. eigenvalues --   -1.72998  -1.20195  -1.09628  -0.83574  -0.83463
 Alpha  occ. eigenvalues --   -0.81381  -0.78010  -0.74477  -0.70130  -0.50448
 Alpha  occ. eigenvalues --   -0.46503  -0.34561
 Alpha virt. eigenvalues --   -0.10308   0.45097   0.48842   0.64986   0.65609
 Alpha virt. eigenvalues --    0.71609   0.71651   0.71910   0.76486   0.77905
 Alpha virt. eigenvalues --    0.79010   0.84442   0.85073   0.94894   0.96073

 Mulliken charges and spin densities:
               1          2
     1  O   -0.068364   0.462392
     2  O    0.068364   0.537608
     3  O    0.068364   0.537608
     4  O   -0.068364   0.462392
 Sum of Mulliken charges =   0.00000   2.00000

 Dipole moment (field-independent basis, Debye):
    X=             -0.0000    Y=              0.0000    Z=             -0.0000  Tot=              0.0000
 Quadrupole moment (field-independent basis, Debye-Ang):
   XX=            -19.1377   YY=            -20.7242   ZZ=            -22.2346
   XY=              0.0000   XZ=              0.0000   YZ=              0.0000

 2-0=-300.1352004\MP4SDQ=-300.0680073\CCSD=-300.0624403\CCSD(T)=-300.14
 Normal termination of Gaussian 16 at Tue Feb 13 13:43:03 2024.
