 Gaussian 16, Revision A.03,
 Gaussian 16:  ES64L-G16RevA.03 25-Dec-2016

 -----------------------------------------------
 #p ROCCSD(T,MaxCyc=200)/cc-pVTZ SCF(MaxCyc=200)
 -----------------------------------------------

 ---------
 O2_O2_179
 ---------
 Symbolic Z-matrix:
 Charge =  0 Multiplicity = 3

                         Standard orientation:
 ---------------------------------------------------------------------
 Center     Atomic      Atomic             Coordinates (Angstroms)
 Number     Number       Type             X           Y           Z
 ---------------------------------------------------------------------
      1          8           0       -0.870000   -1.970000    0.000000
      2          8           0        0.290000   -1.970000    0.000000
      3          8           0        0.290000    1.390000    0.000000
      4          8           0        0.290000    2.550000    0.000000
 ---------------------------------------------------------------------

 SCF Done:  E(ROHF) =  -299.252843433     A.U. after   27 cycles
 E2 =    -0.9211649724D+00 EUMP2 =    -0.30017400840562D+03
 CCSD(T)
 CCSD(T)= -0.30020080769D+03

 The electronic state is 3-A".
 Alpha  occ. eigenvalues --  -20.74366 -20.74215 -20.72873 -20.72756  -1.74815
 Alpha  occ. eigenvalues --   -1.69798  -1.17386  -1.08488  -0.84095  -0.84095
 Alpha  occ. eigenvalues --   -0.78578  -0.78500  -0.75108  -0.67301  -0.51299
 Alpha  occ. eigenvalues --   -0.51299  -0.44749
 Alpha virt. eigenvalues --    0.05017   0.39401   0.43514   0.63304   0.67316
 Alpha virt. eigenvalues --    0.67402   0.70528   0.72512   0.75436   0.77226
 Alpha virt. eigenvalues --    0.79714   0.80353   0.81111   0.82551   0.86707

 Mulliken charges and spin densities:
               1          2
     1  O   -0.000412   0.000030
     2  O    0.001061   0.000046
     3  O   -0.006221   0.994668
     4  O    0.005571   1.005256
 Sum of Mulliken charges =  -0.00000   2.00000

 Dipole moment (field-independent basis, Debye):
    X=              0.0062    Y=              0.0359    Z=              0.0000  Tot=              0.0364
 Quadrupole moment (field-independent basis, Debye-Ang):
   XX=            -20.3056   YY=            -19.3489   ZZ=            -20.5119
   XY=              0.0095   XZ=              0.0000   YZ=              0.0000

 Normal termination of Gaussian 16 at Tue Feb 13 17:20:10 2024.
