 Gaussian 16, Revision A.03,
 Gaussian 16:  ES64L-G16RevA.03 25-Dec-2016

 -----------------------------------------------
 #p ROCCSD(T,MaxCyc=200)/cc-pVTZ SCF(MaxCyc=200)
 -----------------------------------------------

 ---------
 O2_O2_235
 ---------
 Symbolic Z-matrix:
 Charge =  0 Multiplicity = 3

                         Standard orientation:
 ---------------------------------------------------------------------
 Center     Atomic      Atomic             Coordinates (Angstroms)
 Number     Number       Type             X           Y           Z
 ---------------------------------------------------------------------
      1          8           0        0.615183   -2.965183    0.000000
      2          8           0       -0.205061   -2.144939    0.000000
      3          8           0       -0.205061    1.975061   -0.000000
      4          8           0       -0.205061    3.135061   -0.000000
 ---------------------------------------------------------------------

 SCF Done:  E(ROHF) =  -299.252757554     A.U. after   25 cycles
 E2 =    -0.9207198456D+00 EUMP2 =    -0.30017347739930D+03
 CCSD(T)
 CCSD(T)= -0.30020035194D+03

 The electronic state is 3-A".
 Alpha  occ. eigenvalues --  -20.74011 -20.73934 -20.72940 -20.72824  -1.74509
 Alpha  occ. eigenvalues --   -1.69875  -1.17051  -1.08560  -0.83789  -0.83786
 Alpha  occ. eigenvalues --   -0.78651  -0.78132  -0.75179  -0.67403  -0.50984
 Alpha  occ. eigenvalues --   -0.50980  -0.44819
 Alpha virt. eigenvalues --    0.04956   0.39853   0.44420   0.67522   0.68005
 Alpha virt. eigenvalues --    0.70239   0.70496   0.70566   0.73740   0.77759
 Alpha virt. eigenvalues --    0.78898   0.79771   0.82253   0.83072   0.84754

 Mulliken charges and spin densities:
               1          2
     1  O   -0.000298   0.999553
     2  O    0.000368   1.000401
     3  O    0.000035   0.000047
     4  O   -0.000105  -0.000000
 Sum of Mulliken charges =  -0.00000   2.00000

 Dipole moment (field-independent basis, Debye):
    X=             -0.0022    Y=             -0.0004    Z=              0.0000  Tot=              0.0023
 Quadrupole moment (field-independent basis, Debye-Ang):
   XX=            -20.8139   YY=            -20.6274   ZZ=            -18.8839
   XY=              0.3032   XZ=              0.0000   YZ=             -0.0000

 CCSD=-300.1622803\CCSD(T)=-300.2003519\RMSD=3.988e-09\PG=CS [SG(O4)]\\
 Normal termination of Gaussian 16 at Tue Feb 13 18:27:02 2024.
