 Gaussian 16, Revision A.03,
 Gaussian 16:  ES64L-G16RevA.03 25-Dec-2016

 -----------------------------------------------
 #p ROCCSD(T,MaxCyc=200)/cc-pVTZ SCF(MaxCyc=200)
 -----------------------------------------------

 ---------
 O2_O2_221
 ---------
 Symbolic Z-matrix:
 Charge =  0 Multiplicity = 3

                         Standard orientation:
 ---------------------------------------------------------------------
 Center     Atomic      Atomic             Coordinates (Angstroms)
 Number     Number       Type             X           Y           Z
 ---------------------------------------------------------------------
      1          8           0       -0.870000   -2.250000    0.000000
      2          8           0        0.290000   -2.250000    0.000000
      3          8           0        0.290000    1.670000    0.000000
      4          8           0        0.290000    2.830000    0.000000
 ---------------------------------------------------------------------

 SCF Done:  E(ROHF) =  -299.252781967     A.U. after   32 cycles
 E2 =    -0.9207935349D+00 EUMP2 =    -0.30017357550213D+03
 CCSD(T)
 CCSD(T)= -0.30020044375D+03

 The electronic state is 3-A".
 Alpha  occ. eigenvalues --  -20.73993 -20.73917 -20.73001 -20.72885  -1.74490
 Alpha  occ. eigenvalues --   -1.69933  -1.17033  -1.08624  -0.83772  -0.83763
 Alpha  occ. eigenvalues --   -0.78709  -0.78115  -0.75245  -0.67462  -0.50967
 Alpha  occ. eigenvalues --   -0.50960  -0.44879
 Alpha virt. eigenvalues --    0.04895   0.41278   0.42601   0.65642   0.67971
 Alpha virt. eigenvalues --    0.70261   0.70549   0.72099   0.74327   0.77964
 Alpha virt. eigenvalues --    0.78796   0.79801   0.81368   0.83126   0.84692

 Mulliken charges and spin densities:
               1          2
     1  O    0.000328   1.000372
     2  O   -0.000145   0.999601
     3  O   -0.000801   0.000026
     4  O    0.000618   0.000001
 Sum of Mulliken charges =  -0.00000   2.00000

 Dipole moment (field-independent basis, Debye):
    X=             -0.0008    Y=              0.0040    Z=              0.0000  Tot=              0.0041
 Quadrupole moment (field-independent basis, Debye-Ang):
   XX=            -21.1117   YY=            -20.2911   ZZ=            -18.8838
   XY=              0.0047   XZ=              0.0000   YZ=              0.0000

 Normal termination of Gaussian 16 at Tue Feb 13 18:11:02 2024.
