 Gaussian 16, Revision A.03,
 Gaussian 16:  ES64L-G16RevA.03 25-Dec-2016

 -----------------------------------------------
 #p ROCCSD(T,MaxCyc=200)/cc-pVTZ SCF(MaxCyc=200)
 -----------------------------------------------

 ---------
 O2_O2_115
 ---------
 Symbolic Z-matrix:
 Charge =  0 Multiplicity = 3

                         Standard orientation:
 ---------------------------------------------------------------------
 Center     Atomic      Atomic             Coordinates (Angstroms)
 Number     Number       Type             X           Y           Z
 ---------------------------------------------------------------------
      1          8           0        0.615183   -2.165183   -0.000000
      2          8           0       -0.205061   -1.344939   -0.000000
      3          8           0       -0.205061    1.175061    0.000000
      4          8           0       -0.205061    2.335061    0.000000
 ---------------------------------------------------------------------

 SCF Done:  E(ROHF) =  -299.081249541     A.U. after   20 cycles
 E2 =    -0.1135106026D+01 EUMP2 =    -0.30021635556697D+03
 CCSD(T)
 CCSD(T)= -0.30023657674D+03

 The electronic state is 3-A'.
 Alpha  occ. eigenvalues --  -20.75850 -20.75531 -20.75130 -20.74990  -1.73495
 Alpha  occ. eigenvalues --   -1.73254  -1.14685  -1.12839  -0.84544  -0.84138
 Alpha  occ. eigenvalues --   -0.78952  -0.76192  -0.74727  -0.73627  -0.51395
 Alpha  occ. eigenvalues --   -0.50842  -0.29282
 Alpha virt. eigenvalues --   -0.11855   0.41266   0.46662   0.64356   0.66955
 Alpha virt. eigenvalues --    0.67990   0.70738   0.71824   0.74585   0.77575
 Alpha virt. eigenvalues --    0.78967   0.79614   0.84108   0.86230   0.88141

 Mulliken charges and spin densities:
               1          2
     1  O    0.007058   0.565385
     2  O   -0.001874   0.434833
     3  O   -0.004709   0.418923
     4  O   -0.000474   0.580859
 Sum of Mulliken charges =  -0.00000   2.00000

 Dipole moment (field-independent basis, Debye):
    X=              0.0329    Y=             -0.0351    Z=             -0.0000  Tot=              0.0481
 Quadrupole moment (field-independent basis, Debye-Ang):
   XX=            -20.0406   YY=            -20.3485   ZZ=            -20.1595
   XY=              0.2968   XZ=             -0.0000   YZ=             -0.0000

 8\CCSD=-300.1138228\CCSD(T)=-300.2365767\RMSD=2.855e-09\PG=CS [SG(O4)]
 Normal termination of Gaussian 16 at Tue Feb 13 15:37:02 2024.
