 Gaussian 16, Revision A.03,
 Gaussian 16:  ES64L-G16RevA.03 25-Dec-2016

 -----------------------------------------------
 #p ROCCSD(T,MaxCyc=200)/cc-pVTZ SCF(MaxCyc=200)
 -----------------------------------------------

 ---------
 O2_O2_292
 ---------
 Symbolic Z-matrix:
 Charge =  0 Multiplicity = 3

                         Standard orientation:
 ---------------------------------------------------------------------
 Center     Atomic      Atomic             Coordinates (Angstroms)
 Number     Number       Type             X           Y           Z
 ---------------------------------------------------------------------
      1          8           0        0.615183   -3.345183    0.000000
      2          8           0       -0.205061   -2.524939   -0.000000
      3          8           0       -0.205061    2.355061   -0.000000
      4          8           0       -0.205061    3.515061   -0.000000
 ---------------------------------------------------------------------

 SCF Done:  E(ROHF) =  -299.252729421     A.U. after   67 cycles
 E2 =    -0.9206265075D+00 EUMP2 =    -0.30017335592811D+03
 CCSD(T)
 CCSD(T)= -0.30020024994D+03

 The electronic state is 3-A".
 Alpha  occ. eigenvalues --  -20.74020 -20.73943 -20.72948 -20.72832  -1.74519
 Alpha  occ. eigenvalues --   -1.69882  -1.17063  -1.08569  -0.83799  -0.83798
 Alpha  occ. eigenvalues --   -0.78659  -0.78144  -0.75189  -0.67411  -0.50994
 Alpha  occ. eigenvalues --   -0.50993  -0.44827
 Alpha virt. eigenvalues --    0.04948   0.41315   0.43381   0.68000   0.68005
 Alpha virt. eigenvalues --    0.70398   0.70558   0.71904   0.72678   0.77985
 Alpha virt. eigenvalues --    0.79532   0.79787   0.80274   0.82204   0.84710

 Mulliken charges and spin densities:
               1          2
     1  O   -0.000310   0.999656
     2  O    0.000313   1.000342
     3  O    0.000128   0.000002
     4  O   -0.000131  -0.000000
 Sum of Mulliken charges =  -0.00000   2.00000

 Dipole moment (field-independent basis, Debye):
    X=             -0.0016    Y=              0.0008    Z=             -0.0000  Tot=              0.0018
 Quadrupole moment (field-independent basis, Debye-Ang):
   XX=            -20.8138   YY=            -20.6240   ZZ=            -18.8836
   XY=              0.3027   XZ=             -0.0000   YZ=              0.0000

 5\CCSD=-300.162188\CCSD(T)=-300.2002499\RMSD=9.909e-10\PG=CS [SG(O4)]\
 Normal termination of Gaussian 16 at Tue Feb 13 19:26:12 2024.
