 Gaussian 16, Revision A.03,
 Gaussian 16:  ES64L-G16RevA.03 25-Dec-2016

 -----------------------------------------------
 #p ROCCSD(T,MaxCyc=200)/cc-pVTZ SCF(MaxCyc=200)
 -----------------------------------------------

 ---------
 O2_O2_242
 ---------
 Symbolic Z-matrix:
 Charge =  0 Multiplicity = 3

                         Standard orientation:
 ---------------------------------------------------------------------
 Center     Atomic      Atomic             Coordinates (Angstroms)
 Number     Number       Type             X           Y           Z
 ---------------------------------------------------------------------
      1          8           0       -0.870000   -2.390000    0.000000
      2          8           0        0.290000   -2.390000    0.000000
      3          8           0        0.290000    1.810000    0.000000
      4          8           0        0.290000    2.970000    0.000000
 ---------------------------------------------------------------------

 SCF Done:  E(ROHF) =  -299.252758527     A.U. after   32 cycles
 E2 =    -0.9207103310D+00 EUMP2 =    -0.30017346885800D+03
 CCSD(T)
 CCSD(T)= -0.30020035030D+03

 The electronic state is 3-A".
 Alpha  occ. eigenvalues --  -20.73999 -20.73923 -20.72994 -20.72878  -1.74497
 Alpha  occ. eigenvalues --   -1.69927  -1.17041  -1.08617  -0.83779  -0.83773
 Alpha  occ. eigenvalues --   -0.78703  -0.78123  -0.75238  -0.67456  -0.50974
 Alpha  occ. eigenvalues --   -0.50969  -0.44873
 Alpha virt. eigenvalues --    0.04902   0.41400   0.42947   0.66915   0.68009
 Alpha virt. eigenvalues --    0.70339   0.70525   0.72081   0.73387   0.78009
 Alpha virt. eigenvalues --    0.79116   0.79803   0.80893   0.82428   0.84671

 Mulliken charges and spin densities:
               1          2
     1  O    0.000197   1.000217
     2  O   -0.000113   0.999772
     3  O   -0.000492   0.000011
     4  O    0.000409   0.000000
 Sum of Mulliken charges =  -0.00000   2.00000

 Dipole moment (field-independent basis, Debye):
    X=             -0.0004    Y=              0.0039    Z=              0.0000  Tot=              0.0039
 Quadrupole moment (field-independent basis, Debye-Ang):
   XX=            -21.1123   YY=            -20.2960   ZZ=            -18.8837
   XY=              0.0032   XZ=              0.0000   YZ=              0.0000

 Normal termination of Gaussian 16 at Tue Feb 13 18:35:40 2024.
