 Gaussian 16, Revision A.03,
 Gaussian 16:  ES64L-G16RevA.03 25-Dec-2016

 -----------------------------------------------
 #p ROCCSD(T,MaxCyc=200)/cc-pVTZ SCF(MaxCyc=200)
 -----------------------------------------------

 ---------
 O2_O2_232
 ---------
 Symbolic Z-matrix:
 Charge =  0 Multiplicity = 3

                         Standard orientation:
 ---------------------------------------------------------------------
 Center     Atomic      Atomic             Coordinates (Angstroms)
 Number     Number       Type             X           Y           Z
 ---------------------------------------------------------------------
      1          8           0        0.615183   -2.945183    0.000000
      2          8           0       -0.205061   -2.124939    0.000000
      3          8           0       -0.205061    1.955061   -0.000000
      4          8           0       -0.205061    3.115061   -0.000000
 ---------------------------------------------------------------------

 SCF Done:  E(ROHF) =  -299.252760019     A.U. after   25 cycles
 E2 =    -0.9207294339D+00 EUMP2 =    -0.30017348945322D+03
 CCSD(T)
 CCSD(T)= -0.30020036221D+03

 The electronic state is 3-A".
 Alpha  occ. eigenvalues --  -20.74010 -20.73933 -20.72940 -20.72824  -1.74508
 Alpha  occ. eigenvalues --   -1.69874  -1.17050  -1.08559  -0.83789  -0.83785
 Alpha  occ. eigenvalues --   -0.78651  -0.78132  -0.75178  -0.67403  -0.50984
 Alpha  occ. eigenvalues --   -0.50979  -0.44818
 Alpha virt. eigenvalues --    0.04957   0.39712   0.44508   0.67429   0.68003
 Alpha virt. eigenvalues --    0.70144   0.70477   0.70567   0.73816   0.77753
 Alpha virt. eigenvalues --    0.78872   0.79766   0.82264   0.83385   0.84763

 Mulliken charges and spin densities:
               1          2
     1  O   -0.000284   0.999547
     2  O    0.000364   1.000400
     3  O    0.000009   0.000054
     4  O   -0.000088  -0.000000
 Sum of Mulliken charges =  -0.00000   2.00000

 Dipole moment (field-independent basis, Debye):
    X=             -0.0023    Y=             -0.0006    Z=             -0.0000  Tot=              0.0023
 Quadrupole moment (field-independent basis, Debye-Ang):
   XX=            -20.8139   YY=            -20.6275   ZZ=            -18.8839
   XY=              0.3032   XZ=             -0.0000   YZ=              0.0000

 -300.1622895\CCSD(T)=-300.2003622\RMSD=3.910e-09\PG=CS [SG(O4)]\\@
 Normal termination of Gaussian 16 at Tue Feb 13 18:23:32 2024.
