 Gaussian 16, Revision A.03,
 Gaussian 16:  ES64L-G16RevA.03 25-Dec-2016

 -----------------------------------------------
 #p ROCCSD(T,MaxCyc=200)/cc-pVTZ SCF(MaxCyc=200)
 -----------------------------------------------

 --------
 O2_O2_27
 --------
 Symbolic Z-matrix:
 Charge =  0 Multiplicity = 3

                         Standard orientation:
 ---------------------------------------------------------------------
 Center     Atomic      Atomic             Coordinates (Angstroms)
 Number     Number       Type             X           Y           Z
 ---------------------------------------------------------------------
      1          8           0        0.000000    0.000000    1.840000
      2          8           0        0.000000    0.000000    0.680000
      3          8           0        0.000000    0.000000   -0.680000
      4          8           0        0.000000    0.000000   -1.840000
 ---------------------------------------------------------------------

 SCF Done:  E(ROHF) =  -298.901138972     A.U. after   15 cycles
 E2 =    -0.1009024679D+01 EUMP2 =    -0.29991016365111D+03
 CCSD(T)
 CCSD(T)= -0.29994589376D+03

 Unable to determine electronic state:  an orbital has unidentified symmetry.
 Alpha  occ. eigenvalues --  -20.73878 -20.73858 -20.70864 -20.70864  -1.76344
 Alpha  occ. eigenvalues --   -1.70888  -1.35002  -1.03806  -0.87928  -0.87644
 Alpha  occ. eigenvalues --   -0.81228  -0.78970  -0.70092  -0.56822  -0.49835
 Alpha  occ. eigenvalues --   -0.44012  -0.39761
 Alpha virt. eigenvalues --    0.01517   0.45305   0.49816   0.65509   0.65702
 Alpha virt. eigenvalues --    0.68091   0.70497   0.71769   0.73581   0.80759
 Alpha virt. eigenvalues --    0.83893   0.84490   0.94338   0.98956   1.02087

 Mulliken charges and spin densities:
               1          2
     1  O   -0.050013   0.752905
     2  O    0.050013   0.247095
     3  O    0.050013   0.247095
     4  O   -0.050013   0.752905
 Sum of Mulliken charges =  -0.00000   2.00000

 Dipole moment (field-independent basis, Debye):
    X=              0.0000    Y=             -0.0000    Z=             -0.0000  Tot=              0.0000
 Quadrupole moment (field-independent basis, Debye-Ang):
   XX=            -19.2957   YY=            -19.8898   ZZ=            -22.8808
   XY=              0.0000   XZ=              0.0000   YZ=              0.0000

 P2-0=-299.9101637\MP4SDQ=-299.8869605\CCSD=-299.8828601\CCSD(T)=-299.9
 Normal termination of Gaussian 16 at Tue Feb 13 12:36:33 2024.
