 Gaussian 16, Revision A.03,
 Gaussian 16:  ES64L-G16RevA.03 25-Dec-2016

 -----------------------------------------------
 #p ROCCSD(T,MaxCyc=200)/cc-pVTZ SCF(MaxCyc=200)
 -----------------------------------------------

 ---------
 O2_O2_251
 ---------
 Symbolic Z-matrix:
 Charge =  0 Multiplicity = 3

                         Standard orientation:
 ---------------------------------------------------------------------
 Center     Atomic      Atomic             Coordinates (Angstroms)
 Number     Number       Type             X           Y           Z
 ---------------------------------------------------------------------
      1          8           0       -0.870000   -2.450000    0.000000
      2          8           0        0.290000   -2.450000    0.000000
      3          8           0        0.290000    1.870000    0.000000
      4          8           0        0.290000    3.030000    0.000000
 ---------------------------------------------------------------------

 SCF Done:  E(ROHF) =  -299.252750315     A.U. after   27 cycles
 E2 =    -0.9206864744D+00 EUMP2 =    -0.30017343678932D+03
 CCSD(T)
 CCSD(T)= -0.30020032245D+03

 The electronic state is 3-A".
 Alpha  occ. eigenvalues --  -20.74002 -20.73925 -20.72992 -20.72876  -1.74500
 Alpha  occ. eigenvalues --   -1.69925  -1.17044  -1.08614  -0.83781  -0.83777
 Alpha  occ. eigenvalues --   -0.78701  -0.78126  -0.75236  -0.67453  -0.50976
 Alpha  occ. eigenvalues --   -0.50973  -0.44870
 Alpha virt. eigenvalues --    0.04904   0.41419   0.43047   0.67299   0.68014
 Alpha virt. eigenvalues --    0.70352   0.70522   0.72076   0.73085   0.78015
 Alpha virt. eigenvalues --    0.79243   0.79801   0.80673   0.82304   0.84670

 Mulliken charges and spin densities:
               1          2
     1  O    0.000151   1.000163
     2  O   -0.000096   0.999830
     3  O   -0.000413   0.000007
     4  O    0.000357   0.000000
 Sum of Mulliken charges =  -0.00000   2.00000

 Dipole moment (field-independent basis, Debye):
    X=             -0.0002    Y=              0.0039    Z=              0.0000  Tot=              0.0039
 Quadrupole moment (field-independent basis, Debye-Ang):
   XX=            -21.1126   YY=            -20.2977   ZZ=            -18.8837
   XY=              0.0026   XZ=              0.0000   YZ=              0.0000

 CCSD(T)=-300.2003225\RMSD=9.308e-09\PG=CS [SG(O4)]\\@
 Normal termination of Gaussian 16 at Tue Feb 13 18:46:05 2024.
