 Gaussian 16, Revision A.03,
 Gaussian 16:  ES64L-G16RevA.03 25-Dec-2016

 -----------------------------------------------
 #p ROCCSD(T,MaxCyc=200)/cc-pVTZ SCF(MaxCyc=200)
 -----------------------------------------------

 --------
 O2_O2_36
 --------
 Symbolic Z-matrix:
 Charge =  0 Multiplicity = 3

                         Standard orientation:
 ---------------------------------------------------------------------
 Center     Atomic      Atomic             Coordinates (Angstroms)
 Number     Number       Type             X           Y           Z
 ---------------------------------------------------------------------
      1          8           0        0.000000    0.000000    1.900000
      2          8           0        0.000000    0.000000    0.740000
      3          8           0        0.000000    0.000000   -0.740000
      4          8           0        0.000000    0.000000   -1.900000
 ---------------------------------------------------------------------

 SCF Done:  E(ROHF) =  -298.956992509     A.U. after   13 cycles
 E2 =    -0.1057294967D+01 EUMP2 =    -0.30001428747659D+03
 CCSD(T)
 CCSD(T)= -0.30001567859D+03

 Unable to determine electronic state:  an orbital has unidentified symmetry.
 Alpha  occ. eigenvalues --  -20.76459 -20.76451 -20.71491 -20.71491  -1.75940
 Alpha  occ. eigenvalues --   -1.71925  -1.30358  -1.05399  -0.86465  -0.85987
 Alpha  occ. eigenvalues --   -0.80495  -0.79852  -0.72759  -0.58691  -0.52278
 Alpha  occ. eigenvalues --   -0.43979  -0.38202
 Alpha virt. eigenvalues --   -0.05814   0.45665   0.49573   0.65752   0.66331
 Alpha virt. eigenvalues --    0.67893   0.72365   0.72506   0.73466   0.80916
 Alpha virt. eigenvalues --    0.81969   0.83738   0.89235   0.98247   0.99463

 Mulliken charges and spin densities:
               1          2
     1  O   -0.095903   0.478710
     2  O    0.095903   0.521290
     3  O    0.095903   0.521290
     4  O   -0.095903   0.478710
 Sum of Mulliken charges =  -0.00000   2.00000

 Dipole moment (field-independent basis, Debye):
    X=             -0.0000    Y=              0.0000    Z=              0.0000  Tot=              0.0000
 Quadrupole moment (field-independent basis, Debye-Ang):
   XX=            -20.5442   YY=            -18.9951   ZZ=            -23.3909
   XY=              0.0000   XZ=              0.0000   YZ=              0.0000

 PMP2-0=-300.0142875\MP4SDQ=-299.9577202\CCSD=-299.9507261\CCSD(T)=-300
 Normal termination of Gaussian 16 at Tue Feb 13 12:52:06 2024.
