 Gaussian 16, Revision A.03,
 Gaussian 16:  ES64L-G16RevA.03 25-Dec-2016

 -----------------------------------------------
 #p ROCCSD(T,MaxCyc=200)/cc-pVTZ SCF(MaxCyc=200)
 -----------------------------------------------

 --------
 O2_O2_81
 --------
 Symbolic Z-matrix:
 Charge =  0 Multiplicity = 3

                         Standard orientation:
 ---------------------------------------------------------------------
 Center     Atomic      Atomic             Coordinates (Angstroms)
 Number     Number       Type             X           Y           Z
 ---------------------------------------------------------------------
      1          8           0        0.000000    0.000000    2.200000
      2          8           0        0.000000    0.000000    1.040000
      3          8           0        0.000000    0.000000   -1.040000
      4          8           0        0.000000    0.000000   -2.200000
 ---------------------------------------------------------------------

 SCF Done:  E(ROHF) =  -299.096226115     A.U. after   14 cycles
 E2 =    -0.1084682053D+01 EUMP2 =    -0.30018090816768D+03
 CCSD(T)
 CCSD(T)= -0.30021397781D+03

 Unable to determine electronic state:  an orbital has unidentified symmetry.
 Alpha  occ. eigenvalues --  -20.75673 -20.75671 -20.74774 -20.74774  -1.73698
 Alpha  occ. eigenvalues --   -1.73147  -1.16813  -1.11251  -0.84800  -0.83859
 Alpha  occ. eigenvalues --   -0.81533  -0.75253  -0.73103  -0.72971  -0.52418
 Alpha  occ. eigenvalues --   -0.49816  -0.31389
 Alpha virt. eigenvalues --   -0.09187   0.44103   0.48530   0.64300   0.66984
 Alpha virt. eigenvalues --    0.69470   0.71803   0.72144   0.75155   0.76388
 Alpha virt. eigenvalues --    0.78917   0.84660   0.86091   0.90000   0.93605

 Mulliken charges and spin densities:
               1          2
     1  O   -0.016664   0.618757
     2  O    0.016664   0.381243
     3  O    0.016664   0.381243
     4  O   -0.016664   0.618757
 Sum of Mulliken charges =  -0.00000   2.00000

 Dipole moment (field-independent basis, Debye):
    X=             -0.0000    Y=              0.0000    Z=             -0.0000  Tot=              0.0000
 Quadrupole moment (field-independent basis, Debye-Ang):
   XX=            -19.6649   YY=            -20.2190   ZZ=            -20.6050
   XY=              0.0000   XZ=              0.0000   YZ=              0.0000

 PMP2-0=-300.1809082\MP4SDQ=-300.1209255\CCSD=-300.1114838\CCSD(T)=-300
 Normal termination of Gaussian 16 at Tue Feb 13 14:20:32 2024.
