 Gaussian 16, Revision A.03,
 Gaussian 16:  ES64L-G16RevA.03 25-Dec-2016

 -----------------------------------------------
 #p ROCCSD(T,MaxCyc=200)/cc-pVTZ SCF(MaxCyc=200)
 -----------------------------------------------

 ---------
 O2_O2_271
 ---------
 Symbolic Z-matrix:
 Charge =  0 Multiplicity = 3

                         Standard orientation:
 ---------------------------------------------------------------------
 Center     Atomic      Atomic             Coordinates (Angstroms)
 Number     Number       Type             X           Y           Z
 ---------------------------------------------------------------------
      1          8           0        0.615183   -3.205183   -0.000000
      2          8           0       -0.205061   -2.384939   -0.000000
      3          8           0       -0.205061    2.215061    0.000000
      4          8           0       -0.205061    3.375061    0.000000
 ---------------------------------------------------------------------

 SCF Done:  E(ROHF) =  -299.252734450     A.U. after   26 cycles
 E2 =    -0.9206470320D+00 EUMP2 =    -0.30017338148199D+03
 CCSD(T)
 CCSD(T)= -0.30020027055D+03

 The electronic state is 3-A".
 Alpha  occ. eigenvalues --  -20.74016 -20.73939 -20.72945 -20.72830  -1.74515
 Alpha  occ. eigenvalues --   -1.69880  -1.17059  -1.08566  -0.83796  -0.83794
 Alpha  occ. eigenvalues --   -0.78657  -0.78140  -0.75187  -0.67409  -0.50990
 Alpha  occ. eigenvalues --   -0.50989  -0.44825
 Alpha virt. eigenvalues --    0.04951   0.41049   0.43593   0.67966   0.68008
 Alpha virt. eigenvalues --    0.70399   0.70560   0.71573   0.72933   0.77932
 Alpha virt. eigenvalues --    0.79295   0.79789   0.80777   0.82209   0.84715

 Mulliken charges and spin densities:
               1          2
     1  O   -0.000343   0.999611
     2  O    0.000354   1.000382
     3  O    0.000141   0.000008
     4  O   -0.000152  -0.000000
 Sum of Mulliken charges =  -0.00000   2.00000

 Dipole moment (field-independent basis, Debye):
    X=             -0.0018    Y=              0.0007    Z=              0.0000  Tot=              0.0019
 Quadrupole moment (field-independent basis, Debye-Ang):
   XX=            -20.8139   YY=            -20.6258   ZZ=            -18.8837
   XY=              0.3030   XZ=             -0.0000   YZ=             -0.0000

 7\CCSD=-300.1622068\CCSD(T)=-300.2002706\RMSD=1.917e-09\PG=CS [SG(O4)]
 Normal termination of Gaussian 16 at Tue Feb 13 19:09:01 2024.
