 Gaussian 16, Revision A.03,
 Gaussian 16:  ES64L-G16RevA.03 25-Dec-2016

 -----------------------------------------------
 #p ROCCSD(T,MaxCyc=200)/cc-pVTZ SCF(MaxCyc=200)
 -----------------------------------------------

 ---------
 O2_O2_175
 ---------
 Symbolic Z-matrix:
 Charge =  0 Multiplicity = 3

                         Standard orientation:
 ---------------------------------------------------------------------
 Center     Atomic      Atomic             Coordinates (Angstroms)
 Number     Number       Type             X           Y           Z
 ---------------------------------------------------------------------
      1          8           0        0.615183   -2.565183    0.000000
      2          8           0       -0.205061   -1.744939    0.000000
      3          8           0       -0.205061    1.575062   -0.000000
      4          8           0       -0.205061    2.735060   -0.000000
 ---------------------------------------------------------------------

 SCF Done:  E(ROHF) =  -299.252692386     A.U. after   25 cycles
 E2 =    -0.9211080743D+00 EUMP2 =    -0.30017380046059D+03
 CCSD(T)
 CCSD(T)= -0.30020062008D+03

 The electronic state is 3-A".
 Alpha  occ. eigenvalues --  -20.73986 -20.73906 -20.72921 -20.72805  -1.74483
 Alpha  occ. eigenvalues --   -1.69859  -1.17026  -1.08542  -0.83764  -0.83762
 Alpha  occ. eigenvalues --   -0.78634  -0.78121  -0.75138  -0.67387  -0.50959
 Alpha  occ. eigenvalues --   -0.50948  -0.44800
 Alpha virt. eigenvalues --    0.04971   0.37863   0.45993   0.64619   0.67695
 Alpha virt. eigenvalues --    0.68762   0.70662   0.70838   0.74877   0.78105
 Alpha virt. eigenvalues --    0.78524   0.79185   0.83299   0.85794   0.86194

 Mulliken charges and spin densities:
               1          2
     1  O   -0.000144   0.999064
     2  O    0.000386   1.000726
     3  O   -0.000846   0.000184
     4  O    0.000604   0.000026
 Sum of Mulliken charges =  -0.00000   2.00000

 Dipole moment (field-independent basis, Debye):
    X=             -0.0047    Y=             -0.0014    Z=             -0.0000  Tot=              0.0049
 Quadrupole moment (field-independent basis, Debye-Ang):
   XX=            -20.8145   YY=            -20.6478   ZZ=            -18.8844
   XY=              0.3068   XZ=              0.0000   YZ=              0.0000

 3\CCSD=-300.1625023\CCSD(T)=-300.2006201\RMSD=2.575e-09\PG=CS [SG(O4)]
 Normal termination of Gaussian 16 at Tue Feb 13 17:14:50 2024.
