 Gaussian 16, Revision A.03,
 Gaussian 16:  ES64L-G16RevA.03 25-Dec-2016

 -----------------------------------------------
 #p ROCCSD(T,MaxCyc=200)/cc-pVTZ SCF(MaxCyc=200)
 -----------------------------------------------

 ---------
 O2_O2_167
 ---------
 Symbolic Z-matrix:
 Charge =  0 Multiplicity = 3

                         Standard orientation:
 ---------------------------------------------------------------------
 Center     Atomic      Atomic             Coordinates (Angstroms)
 Number     Number       Type             X           Y           Z
 ---------------------------------------------------------------------
      1          8           0       -0.870000   -1.890000    0.000000
      2          8           0        0.290000   -1.890000    0.000000
      3          8           0        0.290000    1.310000    0.000000
      4          8           0        0.290000    2.470000    0.000000
 ---------------------------------------------------------------------

 SCF Done:  E(ROHF) =  -299.252741362     A.U. after   26 cycles
 E2 =    -0.9213980739D+00 EUMP2 =    -0.30017413943599D+03
 CCSD(T)
 CCSD(T)= -0.30020089987D+03

 The electronic state is 3-A".
 Alpha  occ. eigenvalues --  -20.74411 -20.74238 -20.72852 -20.72735  -1.74848
 Alpha  occ. eigenvalues --   -1.69777  -1.17429  -1.08469  -0.84129  -0.84129
 Alpha  occ. eigenvalues --   -0.78562  -0.78557  -0.75084  -0.67268  -0.51334
 Alpha  occ. eigenvalues --   -0.51333  -0.44729
 Alpha virt. eigenvalues --    0.05032   0.39421   0.43564   0.62920   0.66989
 Alpha virt. eigenvalues --    0.67176   0.70581   0.72456   0.75439   0.76963
 Alpha virt. eigenvalues --    0.79834   0.80377   0.80875   0.82767   0.86678

 Mulliken charges and spin densities:
               1          2
     1  O   -0.000516   0.000045
     2  O    0.001213   0.000082
     3  O   -0.007182   0.993754
     4  O    0.006485   1.006120
 Sum of Mulliken charges =  -0.00000   2.00000

 Dipole moment (field-independent basis, Debye):
    X=              0.0083    Y=              0.0443    Z=              0.0000  Tot=              0.0451
 Quadrupole moment (field-independent basis, Debye-Ang):
   XX=            -20.3063   YY=            -19.3452   ZZ=            -20.5115
   XY=              0.0094   XZ=              0.0000   YZ=              0.0000

 Normal termination of Gaussian 16 at Tue Feb 13 17:05:53 2024.
