 Gaussian 16, Revision A.03,
 Gaussian 16:  ES64L-G16RevA.03 25-Dec-2016

 -----------------------------------------------
 #p ROCCSD(T,MaxCyc=200)/cc-pVTZ SCF(MaxCyc=200)
 -----------------------------------------------

 --------
 O2_O2_91
 --------
 Symbolic Z-matrix:
 Charge =  0 Multiplicity = 3

                         Standard orientation:
 ---------------------------------------------------------------------
 Center     Atomic      Atomic             Coordinates (Angstroms)
 Number     Number       Type             X           Y           Z
 ---------------------------------------------------------------------
      1          8           0        0.615183   -2.005183    0.000000
      2          8           0       -0.205061   -1.184939    0.000000
      3          8           0       -0.205061    1.015061   -0.000000
      4          8           0       -0.205061    2.175061   -0.000000
 ---------------------------------------------------------------------

 SCF Done:  E(ROHF) =  -299.091799412     A.U. after   21 cycles
 E2 =    -0.1100389256D+01 EUMP2 =    -0.30019218866769D+03
 CCSD(T)
 CCSD(T)= -0.30022177947D+03

 The electronic state is 3-A'.
 Alpha  occ. eigenvalues --  -20.76155 -20.75438 -20.74855 -20.74720  -1.73673
 Alpha  occ. eigenvalues --   -1.73132  -1.15902  -1.11973  -0.85004  -0.84062
 Alpha  occ. eigenvalues --   -0.79963  -0.75060  -0.74712  -0.73286  -0.51558
 Alpha  occ. eigenvalues --   -0.50476  -0.30737
 Alpha virt. eigenvalues --   -0.10151   0.42642   0.47331   0.63861   0.66566
 Alpha virt. eigenvalues --    0.69679   0.71880   0.72279   0.74938   0.78043
 Alpha virt. eigenvalues --    0.79341   0.79612   0.86074   0.88783   0.91197

 Mulliken charges and spin densities:
               1          2
     1  O    0.003209   0.576266
     2  O    0.005931   0.423695
     3  O    0.000691   0.391407
     4  O   -0.009831   0.608632
 Sum of Mulliken charges =  -0.00000   2.00000

 Dipole moment (field-independent basis, Debye):
    X=              0.0242    Y=             -0.0438    Z=              0.0000  Tot=              0.0501
 Quadrupole moment (field-independent basis, Debye-Ang):
   XX=            -20.0461   YY=            -20.4362   ZZ=            -20.1928
   XY=              0.3340   XZ=              0.0000   YZ=             -0.0000

 \CCSD=-300.112767\CCSD(T)=-300.2217795\RMSD=1.381e-09\PG=CS [SG(O4)]\\
 Normal termination of Gaussian 16 at Tue Feb 13 14:41:48 2024.
