 Gaussian 16, Revision A.03,
 Gaussian 16:  ES64L-G16RevA.03 25-Dec-2016

 -----------------------------------------------
 #p ROCCSD(T,MaxCyc=200)/cc-pVTZ SCF(MaxCyc=200)
 -----------------------------------------------

 ---------
 O2_O2_275
 ---------
 Symbolic Z-matrix:
 Charge =  0 Multiplicity = 3

                         Standard orientation:
 ---------------------------------------------------------------------
 Center     Atomic      Atomic             Coordinates (Angstroms)
 Number     Number       Type             X           Y           Z
 ---------------------------------------------------------------------
      1          8           0       -0.870000   -2.610000    0.000000
      2          8           0        0.290000   -2.610000    0.000000
      3          8           0        0.290000    2.030000    0.000000
      4          8           0        0.290000    3.190000    0.000000
 ---------------------------------------------------------------------

 SCF Done:  E(ROHF) =  -299.252736244     A.U. after   31 cycles
 E2 =    -0.9206449663D+00 EUMP2 =    -0.30017338121017D+03
 CCSD(T)
 CCSD(T)= -0.30020027421D+03

 The electronic state is 3-A".
 Alpha  occ. eigenvalues --  -20.74008 -20.73932 -20.72986 -20.72870  -1.74507
 Alpha  occ. eigenvalues --   -1.69919  -1.17051  -1.08609  -0.83788  -0.83785
 Alpha  occ. eigenvalues --   -0.78696  -0.78133  -0.75230  -0.67448  -0.50983
 Alpha  occ. eigenvalues --   -0.50981  -0.44865
 Alpha virt. eigenvalues --    0.04910   0.41435   0.43188   0.67844   0.68014
 Alpha virt. eigenvalues --    0.70364   0.70523   0.72069   0.72646   0.78017
 Alpha virt. eigenvalues --    0.79518   0.79796   0.80237   0.82190   0.84672

 Mulliken charges and spin densities:
               1          2
     1  O    0.000067   1.000068
     2  O   -0.000051   0.999930
     3  O   -0.000285   0.000002
     4  O    0.000270  -0.000000
 Sum of Mulliken charges =  -0.00000   2.00000

 Dipole moment (field-independent basis, Debye):
    X=              0.0001    Y=              0.0035    Z=              0.0000  Tot=              0.0035
 Quadrupole moment (field-independent basis, Debye-Ang):
   XX=            -21.1130   YY=            -20.3007   ZZ=            -18.8836
   XY=              0.0015   XZ=              0.0000   YZ=              0.0000

 Normal termination of Gaussian 16 at Tue Feb 13 19:13:58 2024.
