 Gaussian 16, Revision A.03,
 Gaussian 16:  ES64L-G16RevA.03 25-Dec-2016

 -----------------------------------------------
 #p ROCCSD(T,MaxCyc=200)/cc-pVTZ SCF(MaxCyc=200)
 -----------------------------------------------

 ---------
 O2_O2_190
 ---------
 Symbolic Z-matrix:
 Charge =  0 Multiplicity = 3

                         Standard orientation:
 ---------------------------------------------------------------------
 Center     Atomic      Atomic             Coordinates (Angstroms)
 Number     Number       Type             X           Y           Z
 ---------------------------------------------------------------------
      1          8           0        0.615183   -2.665183    0.000000
      2          8           0       -0.205061   -1.844939    0.000000
      3          8           0       -0.205061    1.675061   -0.000000
      4          8           0       -0.205061    2.835061   -0.000000
 ---------------------------------------------------------------------

 SCF Done:  E(ROHF) =  -299.252754768     A.U. after   25 cycles
 E2 =    -0.9209610854D+00 EUMP2 =    -0.30017371585325D+03
 CCSD(T)
 CCSD(T)= -0.30020055358D+03

 The electronic state is 3-A".
 Alpha  occ. eigenvalues --  -20.73998 -20.73920 -20.72928 -20.72812  -1.74494
 Alpha  occ. eigenvalues --   -1.69864  -1.17036  -1.08547  -0.83776  -0.83771
 Alpha  occ. eigenvalues --   -0.78640  -0.78122  -0.75156  -0.67392  -0.50970
 Alpha  occ. eigenvalues --   -0.50960  -0.44806
 Alpha virt. eigenvalues --    0.04967   0.37931   0.45676   0.65200   0.67869
 Alpha virt. eigenvalues --    0.69106   0.70610   0.70640   0.74676   0.78072
 Alpha virt. eigenvalues --    0.78468   0.79468   0.82799   0.85262   0.86242

 Mulliken charges and spin densities:
               1          2
     1  O   -0.000057   0.999298
     2  O    0.000293   1.000524
     3  O   -0.000706   0.000168
     4  O    0.000470   0.000010
 Sum of Mulliken charges =  -0.00000   2.00000

 Dipole moment (field-independent basis, Debye):
    X=             -0.0036    Y=             -0.0023    Z=             -0.0000  Tot=              0.0043
 Quadrupole moment (field-independent basis, Debye-Ang):
   XX=            -20.8140   YY=            -20.6364   ZZ=            -18.8842
   XY=              0.3051   XZ=             -0.0000   YZ=              0.0000

 CSD=-300.1624537\CCSD(T)=-300.2005536\RMSD=1.663e-09\PG=CS [SG(O4)]\\@
 Normal termination of Gaussian 16 at Tue Feb 13 17:32:47 2024.
