 Gaussian 16, Revision A.03,
 Gaussian 16:  ES64L-G16RevA.03 25-Dec-2016

 -----------------------------------------------
 #p ROCCSD(T,MaxCyc=200)/cc-pVTZ SCF(MaxCyc=200)
 -----------------------------------------------

 ---------
 O2_O2_181
 ---------
 Symbolic Z-matrix:
 Charge =  0 Multiplicity = 3

                         Standard orientation:
 ---------------------------------------------------------------------
 Center     Atomic      Atomic             Coordinates (Angstroms)
 Number     Number       Type             X           Y           Z
 ---------------------------------------------------------------------
      1          8           0        0.615183   -2.605183   -0.000000
      2          8           0       -0.205061   -1.784939    0.000000
      3          8           0       -0.205061    1.615061    0.000000
      4          8           0       -0.205061    2.775061    0.000000
 ---------------------------------------------------------------------

 SCF Done:  E(ROHF) =  -299.252725230     A.U. after   25 cycles
 E2 =    -0.9210437742D+00 EUMP2 =    -0.30017376900462D+03
 CCSD(T)
 CCSD(T)= -0.30020059637D+03

 The electronic state is 3-A".
 Alpha  occ. eigenvalues --  -20.73992 -20.73912 -20.72924 -20.72808  -1.74488
 Alpha  occ. eigenvalues --   -1.69861  -1.17030  -1.08544  -0.83770  -0.83766
 Alpha  occ. eigenvalues --   -0.78636  -0.78121  -0.75147  -0.67389  -0.50964
 Alpha  occ. eigenvalues --   -0.50953  -0.44803
 Alpha virt. eigenvalues --    0.04969   0.37831   0.45872   0.64806   0.67778
 Alpha virt. eigenvalues --    0.68912   0.70637   0.70747   0.74802   0.78142
 Alpha virt. eigenvalues --    0.78443   0.79311   0.83074   0.85548   0.86229

 Mulliken charges and spin densities:
               1          2
     1  O   -0.000086   0.999169
     2  O    0.000332   1.000630
     3  O   -0.000827   0.000182
     4  O    0.000580   0.000018
 Sum of Mulliken charges =  -0.00000   2.00000

 Dipole moment (field-independent basis, Debye):
    X=             -0.0042    Y=             -0.0020    Z=              0.0000  Tot=              0.0047
 Quadrupole moment (field-independent basis, Debye-Ang):
   XX=            -20.8143   YY=            -20.6425   ZZ=            -18.8843
   XY=              0.3060   XZ=              0.0000   YZ=             -0.0000

 CCSD=-300.1624864\CCSD(T)=-300.2005964\RMSD=3.655e-09\PG=CS [SG(O4)]\\
 Normal termination of Gaussian 16 at Tue Feb 13 17:21:58 2024.
