 Gaussian 16, Revision A.03,
 Gaussian 16:  ES64L-G16RevA.03 25-Dec-2016

 -----------------------------------------------
 #p ROCCSD(T,MaxCyc=200)/cc-pVTZ SCF(MaxCyc=200)
 -----------------------------------------------

 --------
 O2_O2_13
 --------
 Symbolic Z-matrix:
 Charge =  0 Multiplicity = 3

                         Standard orientation:
 ---------------------------------------------------------------------
 Center     Atomic      Atomic             Coordinates (Angstroms)
 Number     Number       Type             X           Y           Z
 ---------------------------------------------------------------------
      1          8           0        0.615183   -1.485183    0.000000
      2          8           0       -0.205061   -0.664939    0.000000
      3          8           0       -0.205061    0.495061   -0.000000
      4          8           0       -0.205061    1.655061   -0.000000
 ---------------------------------------------------------------------

 SCF Done:  E(ROHF) =  -298.914166841     A.U. after   21 cycles
 E2 =    -0.9090875188D+00 EUMP2 =    -0.29982325435982D+03
 CCSD(T)
 CCSD(T)= -0.29986866458D+03

 The electronic state is 3-A".
 Alpha  occ. eigenvalues --  -20.83982 -20.73923 -20.72045 -20.65719  -1.88310
 Alpha  occ. eigenvalues --   -1.69914  -1.45780  -1.01628  -0.96146  -0.92762
 Alpha  occ. eigenvalues --   -0.87396  -0.77361  -0.76346  -0.55785  -0.54022
 Alpha  occ. eigenvalues --   -0.47590  -0.39717
 Alpha virt. eigenvalues --    0.18372   0.46365   0.52895   0.63625   0.63768
 Alpha virt. eigenvalues --    0.65386   0.66494   0.73680   0.75550   0.79831
 Alpha virt. eigenvalues --    0.82624   0.84000   0.87005   0.92398   0.97471

 Mulliken charges and spin densities:
               1          2
     1  O   -0.226849   0.520984
     2  O    0.218225   0.380054
     3  O    0.081074   0.352902
     4  O   -0.072451   0.746061
 Sum of Mulliken charges =  -0.00000   2.00000

 Dipole moment (field-independent basis, Debye):
    X=             -0.4858    Y=              0.6480    Z=             -0.0000  Tot=              0.8099
 Quadrupole moment (field-independent basis, Debye-Ang):
   XX=            -20.2727   YY=            -23.9681   ZZ=            -19.6876
   XY=              1.1940   XZ=             -0.0000   YZ=              0.0000

 \CCSD=-299.8276198\CCSD(T)=-299.8686646\RMSD=2.975e-09\PG=CS [SG(O4)]\
 Normal termination of Gaussian 16 at Tue Feb 13 12:12:03 2024.
