 Gaussian 16, Revision A.03,
 Gaussian 16:  ES64L-G16RevA.03 25-Dec-2016

 -----------------------------------------------
 #p ROCCSD(T,MaxCyc=200)/cc-pVTZ SCF(MaxCyc=200)
 -----------------------------------------------

 ---------
 O2_O2_104
 ---------
 Symbolic Z-matrix:
 Charge =  0 Multiplicity = 3

                         Standard orientation:
 ---------------------------------------------------------------------
 Center     Atomic      Atomic             Coordinates (Angstroms)
 Number     Number       Type             X           Y           Z
 ---------------------------------------------------------------------
      1          8           0       -0.870000   -1.470000    0.000000
      2          8           0        0.290000   -1.470000    0.000000
      3          8           0        0.290000    0.890000    0.000000
      4          8           0        0.290000    2.050000    0.000000
 ---------------------------------------------------------------------

 SCF Done:  E(ROHF) =  -299.102133680     A.U. after   20 cycles
 E2 =    -0.1091880208D+01 EUMP2 =    -0.30019401388794D+03
 CCSD(T)
 CCSD(T)= -0.30022448649D+03

 The electronic state is 3-A'.
 Alpha  occ. eigenvalues --  -20.76242 -20.76058 -20.75374 -20.74635  -1.73989
 Alpha  occ. eigenvalues --   -1.73076  -1.14620  -1.13354  -0.84947  -0.83924
 Alpha  occ. eigenvalues --   -0.79568  -0.77925  -0.74116  -0.72371  -0.51822
 Alpha  occ. eigenvalues --   -0.50795  -0.31361
 Alpha virt. eigenvalues --   -0.09829   0.41361   0.45391   0.63192   0.67523
 Alpha virt. eigenvalues --    0.70142   0.70327   0.71624   0.73599   0.76425
 Alpha virt. eigenvalues --    0.77678   0.78525   0.83687   0.84463   0.86928

 Mulliken charges and spin densities:
               1          2
     1  O   -0.007171   0.469957
     2  O    0.029751   0.530335
     3  O   -0.020453   0.383726
     4  O   -0.002127   0.615983
 Sum of Mulliken charges =  -0.00000   2.00000

 Dipole moment (field-independent basis, Debye):
    X=              0.0438    Y=             -0.1474    Z=              0.0000  Tot=              0.1537
 Quadrupole moment (field-independent basis, Debye-Ang):
   XX=            -20.6730   YY=            -20.1718   ZZ=            -19.6868
   XY=              0.1173   XZ=              0.0000   YZ=              0.0000

 CCSD(T)=-300.2244865\RMSD=7.585e-09\PG=CS [SG(O4)]\\@
 Normal termination of Gaussian 16 at Tue Feb 13 15:12:26 2024.
