 Gaussian 16, Revision A.03,
 Gaussian 16:  ES64L-G16RevA.03 25-Dec-2016

 -----------------------------------------------
 #p ROCCSD(T,MaxCyc=200)/cc-pVTZ SCF(MaxCyc=200)
 -----------------------------------------------

 -------
 O2_O2_9
 -------
 Symbolic Z-matrix:
 Charge =  0 Multiplicity = 3

                         Standard orientation:
 ---------------------------------------------------------------------
 Center     Atomic      Atomic             Coordinates (Angstroms)
 Number     Number       Type             X           Y           Z
 ---------------------------------------------------------------------
      1          8           0        0.000000    0.000000    1.720000
      2          8           0        0.000000    0.000000    0.560000
      3          8           0        0.000000    0.000000   -0.560000
      4          8           0        0.000000    0.000000   -1.720000
 ---------------------------------------------------------------------

 SCF Done:  E(ROHF) =  -298.750138321     A.U. after   11 cycles
 E2 =    -0.9517011610D+00 EUMP2 =    -0.29970183948190D+03
 CCSD(T)
 CCSD(T)= -0.29972524222D+03

 The electronic state is 3-SGG.
 Alpha  occ. eigenvalues --  -20.87114 -20.87043 -20.65205 -20.65205  -1.94637
 Alpha  occ. eigenvalues --   -1.70912  -1.50344  -1.02925  -1.02925  -0.96884
 Alpha  occ. eigenvalues --   -0.85350  -0.78726  -0.78726  -0.54227  -0.54227
 Alpha  occ. eigenvalues --   -0.40207  -0.40207
 Alpha virt. eigenvalues --    0.08917   0.43913   0.51963   0.57362   0.60939
 Alpha virt. eigenvalues --    0.60939   0.66988   0.74268   0.74268   0.83594
 Alpha virt. eigenvalues --    0.83594   0.84221   0.97227   0.97227   1.11066

 Mulliken charges and spin densities:
               1          2
     1  O   -0.295624   0.324328
     2  O    0.295624   0.675672
     3  O    0.295624   0.675672
     4  O   -0.295624   0.324328
 Sum of Mulliken charges =   0.00000   2.00000

 Dipole moment (field-independent basis, Debye):
    X=             -0.0000    Y=              0.0000    Z=             -0.0000  Tot=              0.0000
 Quadrupole moment (field-independent basis, Debye-Ang):
   XX=            -19.6793   YY=            -19.6793   ZZ=            -28.2556
   XY=              0.0000   XZ=              0.0000   YZ=              0.0000

 Normal termination of Gaussian 16 at Tue Feb 13 12:05:11 2024.
