 Gaussian 16, Revision A.03,
 Gaussian 16:  ES64L-G16RevA.03 25-Dec-2016

 -----------------------------------------------
 #p ROCCSD(T,MaxCyc=200)/cc-pVTZ SCF(MaxCyc=200)
 -----------------------------------------------

 --------
 O2_O2_52
 --------
 Symbolic Z-matrix:
 Charge =  0 Multiplicity = 3

                         Standard orientation:
 ---------------------------------------------------------------------
 Center     Atomic      Atomic             Coordinates (Angstroms)
 Number     Number       Type             X           Y           Z
 ---------------------------------------------------------------------
      1          8           0        0.615183   -1.745183    0.000000
      2          8           0       -0.205061   -0.924939    0.000000
      3          8           0       -0.205061    0.755061   -0.000000
      4          8           0       -0.205061    1.915061   -0.000000
 ---------------------------------------------------------------------

 SCF Done:  E(ROHF) =  -299.162487512     A.U. after   25 cycles
 E2 =    -0.9359755845D+00 EUMP2 =    -0.30009846309645D+03
 CCSD(T)
 CCSD(T)= -0.30012405429D+03

 The electronic state is 3-A".
 Alpha  occ. eigenvalues --  -20.74864 -20.73572 -20.72103 -20.69635  -1.75767
 Alpha  occ. eigenvalues --   -1.68885  -1.23336  -1.06291  -0.85293  -0.85023
 Alpha  occ. eigenvalues --   -0.83652  -0.77492  -0.70622  -0.62173  -0.52772
 Alpha  occ. eigenvalues --   -0.51715  -0.42755
 Alpha virt. eigenvalues --    0.07185   0.45515   0.49039   0.64674   0.65570
 Alpha virt. eigenvalues --    0.71248   0.72187   0.72755   0.76139   0.78805
 Alpha virt. eigenvalues --    0.80576   0.81009   0.85474   0.94057   0.96480

 Mulliken charges and spin densities:
               1          2
     1  O   -0.060880   0.006275
     2  O    0.032268   0.008720
     3  O    0.030166   0.947254
     4  O   -0.001553   1.037751
 Sum of Mulliken charges =   0.00000   2.00000

 Dipole moment (field-independent basis, Debye):
    X=             -0.2479    Y=              0.6003    Z=             -0.0000  Tot=              0.6495
 Quadrupole moment (field-independent basis, Debye-Ang):
   XX=            -19.7809   YY=            -21.0724   ZZ=            -20.4046
   XY=              0.9887   XZ=              0.0000   YZ=              0.0000

 \CCSD=-300.0837883\CCSD(T)=-300.1240543\RMSD=5.796e-09\PG=CS [SG(O4)]\
 Normal termination of Gaussian 16 at Tue Feb 13 13:20:03 2024.
