 Gaussian 16, Revision A.03,
 Gaussian 16:  ES64L-G16RevA.03 25-Dec-2016

 -----------------------------------------------
 #p ROCCSD(T,MaxCyc=200)/cc-pVTZ SCF(MaxCyc=200)
 -----------------------------------------------

 --------
 O2_O2_10
 --------
 Symbolic Z-matrix:
 Charge =  0 Multiplicity = 3

                         Standard orientation:
 ---------------------------------------------------------------------
 Center     Atomic      Atomic             Coordinates (Angstroms)
 Number     Number       Type             X           Y           Z
 ---------------------------------------------------------------------
      1          8           0        0.615183   -1.465183    0.000000
      2          8           0       -0.205061   -0.644939    0.000000
      3          8           0       -0.205061    0.475062    0.000000
      4          8           0       -0.205061    1.635060    0.000000
 ---------------------------------------------------------------------

 SCF Done:  E(ROHF) =  -298.888975629     A.U. after   21 cycles
 E2 =    -0.9084651929D+00 EUMP2 =    -0.29979744082217D+03
 CCSD(T)
 CCSD(T)= -0.29983953212D+03

 The electronic state is 3-A".
 Alpha  occ. eigenvalues --  -20.83897 -20.76032 -20.72953 -20.63558  -1.91864
 Alpha  occ. eigenvalues --   -1.70129  -1.47818  -1.01730  -0.98589  -0.94817
 Alpha  occ. eigenvalues --   -0.87642  -0.77282  -0.76235  -0.55589  -0.53891
 Alpha  occ. eigenvalues --   -0.46951  -0.39161
 Alpha virt. eigenvalues --    0.20474   0.46639   0.53050   0.62752   0.63112
 Alpha virt. eigenvalues --    0.65412   0.65875   0.73830   0.75768   0.80134
 Alpha virt. eigenvalues --    0.82985   0.83826   0.88154   0.91831   0.97236

 Mulliken charges and spin densities:
               1          2
     1  O   -0.281680   0.467066
     2  O    0.226948   0.413482
     3  O    0.127772   0.387927
     4  O   -0.073040   0.731526
 Sum of Mulliken charges =  -0.00000   2.00000

 Dipole moment (field-independent basis, Debye):
    X=             -0.7090    Y=              1.0819    Z=              0.0000  Tot=              1.2935
 Quadrupole moment (field-independent basis, Debye-Ang):
   XX=            -20.3301   YY=            -24.3535   ZZ=            -19.6288
   XY=              1.3761   XZ=             -0.0000   YZ=             -0.0000

 CSD=-299.7997723\CCSD(T)=-299.8395321\RMSD=3.070e-09\PG=CS [SG(O4)]\\@
 Normal termination of Gaussian 16 at Tue Feb 13 12:07:03 2024.
