 Gaussian 16, Revision A.03,
 Gaussian 16:  ES64L-G16RevA.03 25-Dec-2016

 -----------------------------------------------
 #p ROCCSD(T,MaxCyc=200)/cc-pVTZ SCF(MaxCyc=200)
 -----------------------------------------------

 ---------
 O2_O2_254
 ---------
 Symbolic Z-matrix:
 Charge =  0 Multiplicity = 3

                         Standard orientation:
 ---------------------------------------------------------------------
 Center     Atomic      Atomic             Coordinates (Angstroms)
 Number     Number       Type             X           Y           Z
 ---------------------------------------------------------------------
      1          8           0       -0.870000   -2.470000    0.000000
      2          8           0        0.290000   -2.470000    0.000000
      3          8           0        0.290000    1.890000    0.000000
      4          8           0        0.290000    3.050000    0.000000
 ---------------------------------------------------------------------

 SCF Done:  E(ROHF) =  -299.252747934     A.U. after   27 cycles
 E2 =    -0.9206797217D+00 EUMP2 =    -0.30017342765619D+03
 CCSD(T)
 CCSD(T)= -0.30020031455D+03

 The electronic state is 3-A".
 Alpha  occ. eigenvalues --  -20.74002 -20.73926 -20.72991 -20.72875  -1.74501
 Alpha  occ. eigenvalues --   -1.69924  -1.17045  -1.08614  -0.83782  -0.83778
 Alpha  occ. eigenvalues --   -0.78700  -0.78126  -0.75235  -0.67453  -0.50977
 Alpha  occ. eigenvalues --   -0.50974  -0.44870
 Alpha virt. eigenvalues --    0.04905   0.41423   0.43074   0.67403   0.68014
 Alpha virt. eigenvalues --    0.70354   0.70522   0.72075   0.73002   0.78016
 Alpha virt. eigenvalues --    0.79283   0.79801   0.80605   0.82277   0.84670

 Mulliken charges and spin densities:
               1          2
     1  O    0.000138   1.000148
     2  O   -0.000090   0.999846
     3  O   -0.000391   0.000006
     4  O    0.000343  -0.000000
 Sum of Mulliken charges =  -0.00000   2.00000

 Dipole moment (field-independent basis, Debye):
    X=             -0.0002    Y=              0.0039    Z=              0.0000  Tot=              0.0039
 Quadrupole moment (field-independent basis, Debye-Ang):
   XX=            -21.1126   YY=            -20.2982   ZZ=            -18.8836
   XY=              0.0025   XZ=              0.0000   YZ=              0.0000

 CCSD(T)=-300.2003145\RMSD=9.124e-09\PG=CS [SG(O4)]\\@
 Normal termination of Gaussian 16 at Tue Feb 13 18:49:31 2024.
