 Gaussian 16, Revision A.03,
 Gaussian 16:  ES64L-G16RevA.03 25-Dec-2016

 -----------------------------------------------
 #p ROCCSD(T,MaxCyc=200)/cc-pVTZ SCF(MaxCyc=200)
 -----------------------------------------------

 --------
 O2_O2_97
 --------
 Symbolic Z-matrix:
 Charge =  0 Multiplicity = 3

                         Standard orientation:
 ---------------------------------------------------------------------
 Center     Atomic      Atomic             Coordinates (Angstroms)
 Number     Number       Type             X           Y           Z
 ---------------------------------------------------------------------
      1          8           0        0.615183   -2.045183    0.000000
      2          8           0       -0.205061   -1.224939    0.000000
      3          8           0       -0.205061    1.055061    0.000000
      4          8           0       -0.205061    2.215061    0.000000
 ---------------------------------------------------------------------

 SCF Done:  E(ROHF) =  -299.089610200     A.U. after   20 cycles
 E2 =    -0.1109107278D+01 EUMP2 =    -0.30019871747865D+03
 CCSD(T)
 CCSD(T)= -0.30022658281D+03

 The electronic state is 3-A'.
 Alpha  occ. eigenvalues --  -20.76068 -20.75489 -20.74959 -20.74815  -1.73619
 Alpha  occ. eigenvalues --   -1.73180  -1.15495  -1.12250  -0.84848  -0.84087
 Alpha  occ. eigenvalues --   -0.79679  -0.75191  -0.74958  -0.73394  -0.51518
 Alpha  occ. eigenvalues --   -0.50604  -0.30321
 Alpha virt. eigenvalues --   -0.10644   0.42331   0.47160   0.63941   0.66582
 Alpha virt. eigenvalues --    0.69387   0.71594   0.72162   0.74856   0.77927
 Alpha virt. eigenvalues --    0.79152   0.79910   0.86026   0.87148   0.90325

 Mulliken charges and spin densities:
               1          2
     1  O    0.005012   0.574366
     2  O    0.002935   0.425795
     3  O   -0.000584   0.399359
     4  O   -0.007362   0.600480
 Sum of Mulliken charges =  -0.00000   2.00000

 Dipole moment (field-independent basis, Debye):
    X=              0.0292    Y=             -0.0420    Z=              0.0000  Tot=              0.0512
 Quadrupole moment (field-independent basis, Debye-Ang):
   XX=            -20.0440   YY=            -20.3936   ZZ=            -20.1864
   XY=              0.3184   XZ=             -0.0000   YZ=             -0.0000

 \CCSD=-300.1137536\CCSD(T)=-300.2265828\RMSD=8.396e-09\PG=CS [SG(O4)]\
 Normal termination of Gaussian 16 at Tue Feb 13 14:54:47 2024.
