 Gaussian 16, Revision A.03,
 Gaussian 16:  ES64L-G16RevA.03 25-Dec-2016

 -----------------------------------------------
 #p ROCCSD(T,MaxCyc=200)/cc-pVTZ SCF(MaxCyc=200)
 -----------------------------------------------

 ---------
 O2_O2_278
 ---------
 Symbolic Z-matrix:
 Charge =  0 Multiplicity = 3

                         Standard orientation:
 ---------------------------------------------------------------------
 Center     Atomic      Atomic             Coordinates (Angstroms)
 Number     Number       Type             X           Y           Z
 ---------------------------------------------------------------------
      1          8           0       -0.870000   -2.630000    0.000000
      2          8           0        0.290000   -2.630000    0.000000
      3          8           0        0.290000    2.050000    0.000000
      4          8           0        0.290000    3.210000    0.000000
 ---------------------------------------------------------------------

 SCF Done:  E(ROHF) =  -299.252735204     A.U. after   31 cycles
 E2 =    -0.9206413779D+00 EUMP2 =    -0.30017337658210D+03
 CCSD(T)
 CCSD(T)= -0.30020027014D+03

 The electronic state is 3-A".
 Alpha  occ. eigenvalues --  -20.74009 -20.73933 -20.72986 -20.72870  -1.74508
 Alpha  occ. eigenvalues --   -1.69919  -1.17052  -1.08608  -0.83788  -0.83786
 Alpha  occ. eigenvalues --   -0.78695  -0.78133  -0.75230  -0.67448  -0.50983
 Alpha  occ. eigenvalues --   -0.50981  -0.44864
 Alpha virt. eigenvalues --    0.04910   0.41435   0.43197   0.67876   0.68014
 Alpha virt. eigenvalues --    0.70364   0.70524   0.72068   0.72620   0.78017
 Alpha virt. eigenvalues --    0.79545   0.79796   0.80199   0.82186   0.84672

 Mulliken charges and spin densities:
               1          2
     1  O    0.000060   1.000061
     2  O   -0.000047   0.999938
     3  O   -0.000275   0.000002
     4  O    0.000262  -0.000000
 Sum of Mulliken charges =  -0.00000   2.00000

 Dipole moment (field-independent basis, Debye):
    X=              0.0001    Y=              0.0035    Z=              0.0000  Tot=              0.0035
 Quadrupole moment (field-independent basis, Debye-Ang):
   XX=            -21.1130   YY=            -20.3009   ZZ=            -18.8836
   XY=              0.0014   XZ=              0.0000   YZ=              0.0000

 CCSD(T)=-300.2002701\RMSD=8.044e-09\PG=CS [SG(O4)]\\@
 Normal termination of Gaussian 16 at Tue Feb 13 19:15:48 2024.
