 Gaussian 16, Revision A.03,
 Gaussian 16:  ES64L-G16RevA.03 25-Dec-2016

 -----------------------------------------------
 #p ROCCSD(T,MaxCyc=200)/cc-pVTZ SCF(MaxCyc=200)
 -----------------------------------------------

 -------
 O2_O2_1
 -------
 Symbolic Z-matrix:
 Charge =  0 Multiplicity = 3

                         Standard orientation:
 ---------------------------------------------------------------------
 Center     Atomic      Atomic             Coordinates (Angstroms)
 Number     Number       Type             X           Y           Z
 ---------------------------------------------------------------------
      1          8           0        0.615183   -1.405183    0.000000
      2          8           0       -0.205061   -0.584939    0.000000
      3          8           0       -0.205061    0.415061   -0.000000
      4          8           0       -0.205061    1.575061   -0.000000
 ---------------------------------------------------------------------

 SCF Done:  E(ROHF) =  -298.759778863     A.U. after   20 cycles
 E2 =    -0.9101627541D+00 EUMP2 =    -0.29966994161662D+03
 CCSD(T)
 CCSD(T)= -0.29970442738D+03

 The electronic state is 3-A".
 Alpha  occ. eigenvalues --  -20.85668 -20.84242 -20.72690 -20.58426  -2.07784
 Alpha  occ. eigenvalues --   -1.71208  -1.53214  -1.09497  -1.08087  -0.97987
 Alpha  occ. eigenvalues --   -0.88268  -0.76753  -0.74926  -0.55006  -0.53282
 Alpha  occ. eigenvalues --   -0.44776  -0.36893
 Alpha virt. eigenvalues --    0.25512   0.47000   0.52353   0.59653   0.60128
 Alpha virt. eigenvalues --    0.62262   0.67630   0.74375   0.76974   0.80360
 Alpha virt. eigenvalues --    0.83891   0.84334   0.89838   0.90683   0.96470

 Mulliken charges and spin densities:
               1          2
     1  O   -0.434701   0.308261
     2  O    0.285915   0.531759
     3  O    0.296580   0.584715
     4  O   -0.147794   0.575265
 Sum of Mulliken charges =  -0.00000   2.00000

 Dipole moment (field-independent basis, Debye):
    X=             -1.3817    Y=              1.6289    Z=             -0.0000  Tot=              2.1360
 Quadrupole moment (field-independent basis, Debye-Ang):
   XX=            -20.4440   YY=            -25.9393   ZZ=            -19.4591
   XY=              1.9809   XZ=             -0.0000   YZ=              0.0000

 CCSD=-299.6670013\CCSD(T)=-299.7044274\RMSD=5.831e-09\PG=CS [SG(O4)]\\
 Normal termination of Gaussian 16 at Tue Feb 13 11:53:09 2024.
