 Gaussian 16, Revision A.03,
 Gaussian 16:  ES64L-G16RevA.03 25-Dec-2016

 -----------------------------------------------
 #p ROCCSD(T,MaxCyc=200)/cc-pVTZ SCF(MaxCyc=200)
 -----------------------------------------------

 --------
 O2_O2_53
 --------
 Symbolic Z-matrix:
 Charge =  0 Multiplicity = 3

                         Standard orientation:
 ---------------------------------------------------------------------
 Center     Atomic      Atomic             Coordinates (Angstroms)
 Number     Number       Type             X           Y           Z
 ---------------------------------------------------------------------
      1          8           0       -0.870000   -1.130000    0.000000
      2          8           0        0.290000   -1.130000    0.000000
      3          8           0        0.290000    0.550000    0.000000
      4          8           0        0.290000    1.710000    0.000000
 ---------------------------------------------------------------------

 SCF Done:  E(ROHF) =  -299.064498097     A.U. after   21 cycles
 E2 =    -0.1025897978D+01 EUMP2 =    -0.30009039607472D+03
 CCSD(T)
 CCSD(T)= -0.30012187089D+03

 The electronic state is 3-A'.
 Alpha  occ. eigenvalues --  -20.77232 -20.76806 -20.71439 -20.70975  -1.76661
 Alpha  occ. eigenvalues --   -1.70369  -1.19715  -1.11072  -0.87190  -0.84099
 Alpha  occ. eigenvalues --   -0.81355  -0.79712  -0.72941  -0.62843  -0.53754
 Alpha  occ. eigenvalues --   -0.47972  -0.36161
 Alpha virt. eigenvalues --   -0.03067   0.40706   0.48690   0.64455   0.64710
 Alpha virt. eigenvalues --    0.69671   0.71151   0.72094   0.75859   0.78213
 Alpha virt. eigenvalues --    0.78427   0.83126   0.86676   0.88364   0.97546

 Mulliken charges and spin densities:
               1          2
     1  O    0.040090   0.592019
     2  O    0.066305   0.410475
     3  O   -0.062853   0.302548
     4  O   -0.043541   0.694958
 Sum of Mulliken charges =  -0.00000   2.00000

 Dipole moment (field-independent basis, Debye):
    X=             -0.0018    Y=             -0.7183    Z=              0.0000  Tot=              0.7183
 Quadrupole moment (field-independent basis, Debye-Ang):
   XX=            -20.2431   YY=            -21.1318   ZZ=            -19.5253
   XY=              0.1990   XZ=              0.0000   YZ=              0.0000

 Normal termination of Gaussian 16 at Tue Feb 13 13:22:17 2024.
