 Gaussian 16, Revision A.03,
 Gaussian 16:  ES64L-G16RevA.03 25-Dec-2016

 -----------------------------------------------
 #p ROCCSD(T,MaxCyc=200)/cc-pVTZ SCF(MaxCyc=200)
 -----------------------------------------------

 --------
 O2_O2_64
 --------
 Symbolic Z-matrix:
 Charge =  0 Multiplicity = 3

                         Standard orientation:
 ---------------------------------------------------------------------
 Center     Atomic      Atomic             Coordinates (Angstroms)
 Number     Number       Type             X           Y           Z
 ---------------------------------------------------------------------
      1          8           0        0.615183   -1.825183   -0.000000
      2          8           0       -0.205061   -1.004939    0.000000
      3          8           0       -0.205061    0.835061    0.000000
      4          8           0       -0.205061    1.995061    0.000000
 ---------------------------------------------------------------------

 SCF Done:  E(ROHF) =  -299.085815385     A.U. after   20 cycles
 E2 =    -0.1063742028D+01 EUMP2 =    -0.30014955741300D+03
 CCSD(T)
 CCSD(T)= -0.30018004517D+03

 The electronic state is 3-A'.
 Alpha  occ. eigenvalues --  -20.76919 -20.74811 -20.73907 -20.73790  -1.74187
 Alpha  occ. eigenvalues --   -1.72691  -1.19518  -1.09988  -0.86485  -0.84072
 Alpha  occ. eigenvalues --   -0.81083  -0.75880  -0.72511  -0.71033  -0.51667
 Alpha  occ. eigenvalues --   -0.49308  -0.33282
 Alpha virt. eigenvalues --   -0.07219   0.43976   0.48218   0.64017   0.67071
 Alpha virt. eigenvalues --    0.70518   0.72013   0.72897   0.75026   0.77155
 Alpha virt. eigenvalues --    0.78966   0.81119   0.85600   0.94513   0.95360

 Mulliken charges and spin densities:
               1          2
     1  O   -0.023886   0.556603
     2  O    0.045107   0.437332
     3  O   -0.002392   0.346080
     4  O   -0.018829   0.659985
 Sum of Mulliken charges =  -0.00000   2.00000

 Dipole moment (field-independent basis, Debye):
    X=             -0.0601    Y=             -0.0361    Z=             -0.0000  Tot=              0.0701
 Quadrupole moment (field-independent basis, Debye-Ang):
   XX=            -20.0731   YY=            -20.9462   ZZ=            -20.1737
   XY=              0.5143   XZ=             -0.0000   YZ=              0.0000

 CSD=-300.0908588\CCSD(T)=-300.1800452\RMSD=7.535e-09\PG=CS [SG(O4)]\\@
 Normal termination of Gaussian 16 at Tue Feb 13 13:45:32 2024.
