 Gaussian 16, Revision A.03,
 Gaussian 16:  ES64L-G16RevA.03 25-Dec-2016

 -----------------------------------------------
 #p ROCCSD(T,MaxCyc=200)/cc-pVTZ SCF(MaxCyc=200)
 -----------------------------------------------

 --------
 O2_O2_45
 --------
 Symbolic Z-matrix:
 Charge =  0 Multiplicity = 3

                         Standard orientation:
 ---------------------------------------------------------------------
 Center     Atomic      Atomic             Coordinates (Angstroms)
 Number     Number       Type             X           Y           Z
 ---------------------------------------------------------------------
      1          8           0        0.000000    0.000000    1.960000
      2          8           0        0.000000    0.000000    0.800000
      3          8           0        0.000000    0.000000   -0.800000
      4          8           0        0.000000    0.000000   -1.960000
 ---------------------------------------------------------------------

 SCF Done:  E(ROHF) =  -299.045955294     A.U. after   15 cycles
 E2 =    -0.1027193943D+01 EUMP2 =    -0.30007314923691D+03
 CCSD(T)
 CCSD(T)= -0.30011008548D+03

 Unable to determine electronic state:  an orbital has unidentified symmetry.
 Alpha  occ. eigenvalues --  -20.74465 -20.74459 -20.73082 -20.73082  -1.74379
 Alpha  occ. eigenvalues --   -1.72073  -1.24862  -1.07100  -0.85871  -0.85684
 Alpha  occ. eigenvalues --   -0.82589  -0.76646  -0.71582  -0.62559  -0.54510
 Alpha  occ. eigenvalues --   -0.46930  -0.35888
 Alpha virt. eigenvalues --   -0.03315   0.45668   0.48971   0.65451   0.68180
 Alpha virt. eigenvalues --    0.70015   0.70099   0.72915   0.75402   0.78240
 Alpha virt. eigenvalues --    0.82285   0.84598   0.87021   0.97604   1.00662

 Mulliken charges and spin densities:
               1          2
     1  O   -0.037997   0.696073
     2  O    0.037997   0.303927
     3  O    0.037997   0.303927
     4  O   -0.037997   0.696073
 Sum of Mulliken charges =  -0.00000   2.00000

 Dipole moment (field-independent basis, Debye):
    X=             -0.0000    Y=              0.0000    Z=             -0.0000  Tot=              0.0000
 Quadrupole moment (field-independent basis, Debye-Ang):
   XX=            -19.5091   YY=            -20.1096   ZZ=            -21.5221
   XY=              0.0000   XZ=              0.0000   YZ=              0.0000

 MP2-0=-300.0731492\MP4SDQ=-300.041537\CCSD=-300.0361567\CCSD(T)=-300.1
 Normal termination of Gaussian 16 at Tue Feb 13 13:08:15 2024.
