 Gaussian 16, Revision A.03,
 Gaussian 16:  ES64L-G16RevA.03 25-Dec-2016

 -----------------------------------------------
 #p ROCCSD(T,MaxCyc=200)/cc-pVTZ SCF(MaxCyc=200)
 -----------------------------------------------

 ---------
 O2_O2_298
 ---------
 Symbolic Z-matrix:
 Charge =  0 Multiplicity = 3

                         Standard orientation:
 ---------------------------------------------------------------------
 Center     Atomic      Atomic             Coordinates (Angstroms)
 Number     Number       Type             X           Y           Z
 ---------------------------------------------------------------------
      1          8           0        0.615183   -3.385183   -0.000000
      2          8           0       -0.205061   -2.564939   -0.000000
      3          8           0       -0.205061    2.395061    0.000000
      4          8           0       -0.205061    3.555061    0.000000
 ---------------------------------------------------------------------

 SCF Done:  E(ROHF) =  -299.252728755     A.U. after   37 cycles
 E2 =    -0.9206222026D+00 EUMP2 =    -0.30017335095735D+03
 CCSD(T)
 CCSD(T)= -0.30020024603D+03

 The electronic state is 3-A".
 Alpha  occ. eigenvalues --  -20.74021 -20.73944 -20.72948 -20.72832  -1.74520
 Alpha  occ. eigenvalues --   -1.69883  -1.17064  -1.08570  -0.83800  -0.83799
 Alpha  occ. eigenvalues --   -0.78659  -0.78145  -0.75190  -0.67411  -0.50995
 Alpha  occ. eigenvalues --   -0.50994  -0.44828
 Alpha virt. eigenvalues --    0.04948   0.41352   0.43349   0.68003   0.68004
 Alpha virt. eigenvalues --    0.70397   0.70558   0.71954   0.72636   0.77992
 Alpha virt. eigenvalues --    0.79586   0.79786   0.80188   0.82203   0.84710

 Mulliken charges and spin densities:
               1          2
     1  O   -0.000299   0.999670
     2  O    0.000301   1.000329
     3  O    0.000123   0.000001
     4  O   -0.000125  -0.000000
 Sum of Mulliken charges =  -0.00000   2.00000

 Dipole moment (field-independent basis, Debye):
    X=             -0.0015    Y=              0.0008    Z=              0.0000  Tot=              0.0017
 Quadrupole moment (field-independent basis, Debye-Ang):
   XX=            -20.8138   YY=            -20.6235   ZZ=            -18.8836
   XY=              0.3027   XZ=             -0.0000   YZ=             -0.0000

 SD=-300.1621845\CCSD(T)=-300.200246\RMSD=8.708e-09\PG=CS [SG(O4)]\\@
 Normal termination of Gaussian 16 at Tue Feb 13 19:32:53 2024.
