 Gaussian 16, Revision A.03,
 Gaussian 16:  ES64L-G16RevA.03 25-Dec-2016

 -----------------------------------------------
 #p ROCCSD(T,MaxCyc=200)/cc-pVTZ SCF(MaxCyc=200)
 -----------------------------------------------

 ---------
 O2_O2_176
 ---------
 Symbolic Z-matrix:
 Charge =  0 Multiplicity = 3

                         Standard orientation:
 ---------------------------------------------------------------------
 Center     Atomic      Atomic             Coordinates (Angstroms)
 Number     Number       Type             X           Y           Z
 ---------------------------------------------------------------------
      1          8           0       -0.870000   -1.950000    0.000000
      2          8           0        0.290000   -1.950000    0.000000
      3          8           0        0.290000    1.370000    0.000000
      4          8           0        0.290000    2.530000    0.000000
 ---------------------------------------------------------------------

 SCF Done:  E(ROHF) =  -299.252826677     A.U. after   27 cycles
 E2 =    -0.9212162469D+00 EUMP2 =    -0.30017404292393D+03
 CCSD(T)
 CCSD(T)= -0.30020083362D+03

 The electronic state is 3-A".
 Alpha  occ. eigenvalues --  -20.74377 -20.74221 -20.72868 -20.72752  -1.74823
 Alpha  occ. eigenvalues --   -1.69793  -1.17396  -1.08483  -0.84103  -0.84103
 Alpha  occ. eigenvalues --   -0.78573  -0.78514  -0.75103  -0.67294  -0.51307
 Alpha  occ. eigenvalues --   -0.51307  -0.44744
 Alpha virt. eigenvalues --    0.05020   0.39381   0.43525   0.63174   0.67245
 Alpha virt. eigenvalues --    0.67350   0.70540   0.72500   0.75455   0.77139
 Alpha virt. eigenvalues --    0.79739   0.80369   0.81073   0.82596   0.86703

 Mulliken charges and spin densities:
               1          2
     1  O   -0.000436   0.000033
     2  O    0.001102   0.000053
     3  O   -0.006467   0.994459
     4  O    0.005801   1.005454
 Sum of Mulliken charges =  -0.00000   2.00000

 Dipole moment (field-independent basis, Debye):
    X=              0.0066    Y=              0.0377    Z=              0.0000  Tot=              0.0383
 Quadrupole moment (field-independent basis, Debye-Ang):
   XX=            -20.3058   YY=            -19.3476   ZZ=            -20.5118
   XY=              0.0096   XZ=              0.0000   YZ=              0.0000

 CCSD(T)=-300.2008336\RMSD=7.435e-09\PG=CS [SG(O4)]\\@
 Normal termination of Gaussian 16 at Tue Feb 13 17:16:33 2024.
