 Gaussian 16, Revision A.03,
 Gaussian 16:  ES64L-G16RevA.03 25-Dec-2016

 -----------------------------------------------
 #p ROCCSD(T,MaxCyc=200)/cc-pVTZ SCF(MaxCyc=200)
 -----------------------------------------------

 ---------
 O2_O2_113
 ---------
 Symbolic Z-matrix:
 Charge =  0 Multiplicity = 3

                         Standard orientation:
 ---------------------------------------------------------------------
 Center     Atomic      Atomic             Coordinates (Angstroms)
 Number     Number       Type             X           Y           Z
 ---------------------------------------------------------------------
      1          8           0       -0.870000   -1.530000    0.000000
      2          8           0        0.290000   -1.530000    0.000000
      3          8           0        0.290000    0.950000    0.000000
      4          8           0        0.290000    2.110000    0.000000
 ---------------------------------------------------------------------

 SCF Done:  E(ROHF) =  -299.097381439     A.U. after   20 cycles
 E2 =    -0.1103232615D+01 EUMP2 =    -0.30020061405472D+03
 CCSD(T)
 CCSD(T)= -0.30022943852D+03

 The electronic state is 3-A'.
 Alpha  occ. eigenvalues --  -20.76171 -20.76026 -20.75463 -20.74787  -1.73892
 Alpha  occ. eigenvalues --   -1.73165  -1.14416  -1.13467  -0.84838  -0.84028
 Alpha  occ. eigenvalues --   -0.79099  -0.77850  -0.74142  -0.72985  -0.51739
 Alpha  occ. eigenvalues --   -0.50899  -0.30765
 Alpha virt. eigenvalues --   -0.10511   0.41282   0.44785   0.63441   0.66719
 Alpha virt. eigenvalues --    0.69157   0.69956   0.71855   0.74462   0.76190
 Alpha virt. eigenvalues --    0.77669   0.78511   0.82226   0.83960   0.86873

 Mulliken charges and spin densities:
               1          2
     1  O   -0.006443   0.474734
     2  O    0.025591   0.525471
     3  O   -0.020513   0.394291
     4  O    0.001366   0.605504
 Sum of Mulliken charges =  -0.00000   2.00000

 Dipole moment (field-independent basis, Debye):
    X=              0.0325    Y=             -0.1294    Z=              0.0000  Tot=              0.1335
 Quadrupole moment (field-independent basis, Debye-Ang):
   XX=            -20.6787   YY=            -20.1378   ZZ=            -19.6906
   XY=              0.1026   XZ=              0.0000   YZ=              0.0000

 CCSD(T)=-300.2294385\RMSD=7.596e-09\PG=CS [SG(O4)]\\@
 Normal termination of Gaussian 16 at Tue Feb 13 15:32:46 2024.
