 Gaussian 16, Revision A.03,
 Gaussian 16:  ES64L-G16RevA.03 25-Dec-2016

 -----------------------------------------------
 #p ROCCSD(T,MaxCyc=200)/cc-pVTZ SCF(MaxCyc=200)
 -----------------------------------------------

 ---------
 O2_O2_152
 ---------
 Symbolic Z-matrix:
 Charge =  0 Multiplicity = 3

                         Standard orientation:
 ---------------------------------------------------------------------
 Center     Atomic      Atomic             Coordinates (Angstroms)
 Number     Number       Type             X           Y           Z
 ---------------------------------------------------------------------
      1          8           0       -0.870000   -1.790000    0.000000
      2          8           0        0.290000   -1.790000    0.000000
      3          8           0        0.290000    1.210000    0.000000
      4          8           0        0.290000    2.370000    0.000000
 ---------------------------------------------------------------------

 SCF Done:  E(ROHF) =  -299.252334329     A.U. after   26 cycles
 E2 =    -0.9216494687D+00 EUMP2 =    -0.30017398379816D+03
 CCSD(T)
 CCSD(T)= -0.30020077948D+03

 The electronic state is 3-A".
 Alpha  occ. eigenvalues --  -20.73905 -20.73827 -20.73037 -20.72919  -1.74408
 Alpha  occ. eigenvalues --   -1.69975  -1.16954  -1.08693  -0.83751  -0.83693
 Alpha  occ. eigenvalues --   -0.78748  -0.78056  -0.75223  -0.67504  -0.50896
 Alpha  occ. eigenvalues --   -0.50887  -0.44904
 Alpha virt. eigenvalues --    0.04838   0.40581   0.42885   0.62919   0.66553
 Alpha virt. eigenvalues --    0.68357   0.71467   0.72310   0.75187   0.77800
 Alpha virt. eigenvalues --    0.79048   0.79426   0.79637   0.85730   0.87725

 Mulliken charges and spin densities:
               1          2
     1  O    0.001088   1.000377
     2  O   -0.001011   0.999413
     3  O   -0.002041   0.000139
     4  O    0.001964   0.000071
 Sum of Mulliken charges =  -0.00000   2.00000

 Dipole moment (field-independent basis, Debye):
    X=              0.0023    Y=              0.0218    Z=              0.0000  Tot=              0.0219
 Quadrupole moment (field-independent basis, Debye-Ang):
   XX=            -21.1116   YY=            -20.3262   ZZ=            -18.8844
   XY=              0.0054   XZ=              0.0000   YZ=              0.0000

 Normal termination of Gaussian 16 at Tue Feb 13 16:47:12 2024.
