 Gaussian 16, Revision A.03,
 Gaussian 16:  ES64L-G16RevA.03 25-Dec-2016

 -----------------------------------------------
 #p ROCCSD(T,MaxCyc=200)/cc-pVTZ SCF(MaxCyc=200)
 -----------------------------------------------

 --------
 O2_O2_19
 --------
 Symbolic Z-matrix:
 Charge =  0 Multiplicity = 3

                         Standard orientation:
 ---------------------------------------------------------------------
 Center     Atomic      Atomic             Coordinates (Angstroms)
 Number     Number       Type             X           Y           Z
 ---------------------------------------------------------------------
      1          8           0        0.615183   -1.525183    0.000000
      2          8           0       -0.205061   -0.704939    0.000000
      3          8           0       -0.205061    0.535061   -0.000000
      4          8           0       -0.205061    1.695061   -0.000000
 ---------------------------------------------------------------------

 SCF Done:  E(ROHF) =  -298.949005863     A.U. after   23 cycles
 E2 =    -0.9136810336D+00 EUMP2 =    -0.29986268689666D+03
 CCSD(T)
 CCSD(T)= -0.29991692332D+03

 The electronic state is 3-A".
 Alpha  occ. eigenvalues --  -20.84947 -20.70493 -20.69985 -20.69685  -1.83647
 Alpha  occ. eigenvalues --   -1.69552  -1.41391  -1.02447  -0.93050  -0.89146
 Alpha  occ. eigenvalues --   -0.86659  -0.77278  -0.76490  -0.56212  -0.54616
 Alpha  occ. eigenvalues --   -0.47934  -0.40311
 Alpha virt. eigenvalues --    0.13541   0.45608   0.52412   0.64427   0.64820
 Alpha virt. eigenvalues --    0.65178   0.68195   0.73509   0.75127   0.78933
 Alpha virt. eigenvalues --    0.82042   0.84793   0.85029   0.93318   0.97901

 Mulliken charges and spin densities:
               1          2
     1  O   -0.135900   0.594221
     2  O    0.223039   0.334627
     3  O   -0.005263   0.312977
     4  O   -0.081875   0.758174
 Sum of Mulliken charges =  -0.00000   2.00000

 Dipole moment (field-independent basis, Debye):
    X=             -0.1242    Y=             -0.2670    Z=             -0.0000  Tot=              0.2945
 Quadrupole moment (field-independent basis, Debye-Ang):
   XX=            -20.1680   YY=            -23.3452   ZZ=            -19.8208
   XY=              0.9287   XZ=             -0.0000   YZ=              0.0000

 \CCSD=-299.8718473\CCSD(T)=-299.9169233\RMSD=2.822e-09\PG=CS [SG(O4)]\
 Normal termination of Gaussian 16 at Tue Feb 13 12:22:32 2024.
