 Gaussian 16, Revision A.03,
 Gaussian 16:  ES64L-G16RevA.03 25-Dec-2016

 -----------------------------------------------
 #p ROCCSD(T,MaxCyc=200)/cc-pVTZ SCF(MaxCyc=200)
 -----------------------------------------------

 --------
 O2_O2_98
 --------
 Symbolic Z-matrix:
 Charge =  0 Multiplicity = 3

                         Standard orientation:
 ---------------------------------------------------------------------
 Center     Atomic      Atomic             Coordinates (Angstroms)
 Number     Number       Type             X           Y           Z
 ---------------------------------------------------------------------
      1          8           0       -0.870000   -1.430000    0.000000
      2          8           0        0.290000   -1.430000    0.000000
      3          8           0        0.290000    0.850000    0.000000
      4          8           0        0.290000    2.010000    0.000000
 ---------------------------------------------------------------------

 SCF Done:  E(ROHF) =  -299.104817306     A.U. after   20 cycles
 E2 =    -0.1084401462D+01 EUMP2 =    -0.30018921876793D+03
 CCSD(T)
 CCSD(T)= -0.30022034077D+03

 The electronic state is 3-A'.
 Alpha  occ. eigenvalues --  -20.76285 -20.76062 -20.75278 -20.74503  -1.74067
 Alpha  occ. eigenvalues --   -1.72991  -1.14804  -1.13251  -0.85032  -0.83828
 Alpha  occ. eigenvalues --   -0.79955  -0.77976  -0.74089  -0.71841  -0.51886
 Alpha  occ. eigenvalues --   -0.50699  -0.31796
 Alpha virt. eigenvalues --   -0.09320   0.41398   0.45767   0.63105   0.67974
 Alpha virt. eigenvalues --    0.70274   0.71043   0.71455   0.73178   0.76635
 Alpha virt. eigenvalues --    0.77791   0.78539   0.84766   0.84905   0.87013

 Mulliken charges and spin densities:
               1          2
     1  O   -0.007580   0.467268
     2  O    0.032755   0.533102
     3  O   -0.020284   0.376020
     4  O   -0.004891   0.623610
 Sum of Mulliken charges =  -0.00000   2.00000

 Dipole moment (field-independent basis, Debye):
    X=              0.0523    Y=             -0.1617    Z=              0.0000  Tot=              0.1699
 Quadrupole moment (field-independent basis, Debye-Ang):
   XX=            -20.6640   YY=            -20.2099   ZZ=            -19.6826
   XY=              0.1271   XZ=              0.0000   YZ=              0.0000

 Normal termination of Gaussian 16 at Tue Feb 13 14:57:06 2024.
