 Gaussian 16, Revision A.03,
 Gaussian 16:  ES64L-G16RevA.03 25-Dec-2016

 -----------------------------------------------
 #p ROCCSD(T,MaxCyc=200)/cc-pVTZ SCF(MaxCyc=200)
 -----------------------------------------------

 ---------
 O2_O2_129
 ---------
 Symbolic Z-matrix:
 Charge =  0 Multiplicity = 3

                         Standard orientation:
 ---------------------------------------------------------------------
 Center     Atomic      Atomic             Coordinates (Angstroms)
 Number     Number       Type             X           Y           Z
 ---------------------------------------------------------------------
      1          8           0        0.000000    0.000000    2.520000
      2          8           0        0.000000    0.000000    1.360000
      3          8           0        0.000000    0.000000   -1.360000
      4          8           0        0.000000    0.000000   -2.520000
 ---------------------------------------------------------------------

 SCF Done:  E(ROHF) =  -299.049281774     A.U. after   13 cycles
 E2 =    -0.1147000068D+01 EUMP2 =    -0.30019628184144D+03
 CCSD(T)
 CCSD(T)= -0.30019114945D+03

 Unable to determine electronic state:  an orbital has unidentified symmetry.
 Alpha  occ. eigenvalues --  -20.76421 -20.76419 -20.74675 -20.74675  -1.73466
 Alpha  occ. eigenvalues --   -1.73368  -1.14422  -1.13148  -0.82376  -0.82145
 Alpha  occ. eigenvalues --   -0.78835  -0.76672  -0.76587  -0.75698  -0.48804
 Alpha  occ. eigenvalues --   -0.48254  -0.30375
 Alpha virt. eigenvalues --   -0.15105   0.39619   0.48456   0.65931   0.66237
 Alpha virt. eigenvalues --    0.66733   0.70323   0.70416   0.75691   0.76666
 Alpha virt. eigenvalues --    0.77733   0.79875   0.85635   0.86805   0.87897

 Mulliken charges and spin densities:
               1          2
     1  O   -0.021659   0.476236
     2  O    0.021659   0.523764
     3  O    0.021659   0.523764
     4  O   -0.021659   0.476236
 Sum of Mulliken charges =  -0.00000   2.00000

 Dipole moment (field-independent basis, Debye):
    X=             -0.0000    Y=             -0.0000    Z=             -0.0000  Tot=              0.0000
 Quadrupole moment (field-independent basis, Debye-Ang):
   XX=            -20.7322   YY=            -19.1234   ZZ=            -21.5373
   XY=              0.0000   XZ=              0.0000   YZ=              0.0000

 \PMP2-0=-300.1962818\MP4SDQ=-300.057453\CCSD=-300.0744887\CCSD(T)=-300
 Normal termination of Gaussian 16 at Tue Feb 13 16:09:08 2024.
