 Gaussian 16, Revision A.03,
 Gaussian 16:  ES64L-G16RevA.03 25-Dec-2016

 -----------------------------------------------
 #p ROCCSD(T,MaxCyc=200)/cc-pVTZ SCF(MaxCyc=200)
 -----------------------------------------------

 --------
 O2_O2_21
 --------
 Symbolic Z-matrix:
 Charge =  0 Multiplicity = 3

                         Standard orientation:
 ---------------------------------------------------------------------
 Center     Atomic      Atomic             Coordinates (Angstroms)
 Number     Number       Type             X           Y           Z
 ---------------------------------------------------------------------
      1          8           0        0.000000    0.000000    1.800000
      2          8           0        0.000000    0.000000    0.640000
      3          8           0        0.000000    0.000000   -0.640000
      4          8           0        0.000000    0.000000   -1.800000
 ---------------------------------------------------------------------

 SCF Done:  E(ROHF) =  -298.784047845     A.U. after   14 cycles
 E2 =    -0.1108163991D+01 EUMP2 =    -0.29989221183666D+03
 CCSD(T)
 CCSD(T)= -0.29986194559D+03

 Unable to determine electronic state:  an orbital has unidentified symmetry.
 Alpha  occ. eigenvalues --  -20.87049 -20.87024 -20.67724 -20.67724  -1.85756
 Alpha  occ. eigenvalues --   -1.73572  -1.46992  -1.02577  -0.96085  -0.88002
 Alpha  occ. eigenvalues --   -0.87963  -0.81778  -0.71421  -0.54268  -0.51636
 Alpha  occ. eigenvalues --   -0.44616  -0.40363
 Alpha virt. eigenvalues --   -0.03154   0.43049   0.50020   0.60590   0.62578
 Alpha virt. eigenvalues --    0.64239   0.68219   0.73259   0.74381   0.82272
 Alpha virt. eigenvalues --    0.82507   0.84100   0.92904   0.96659   0.98960

 Mulliken charges and spin densities:
               1          2
     1  O   -0.238968   0.290278
     2  O    0.238968   0.709722
     3  O    0.238968   0.709722
     4  O   -0.238968   0.290278
 Sum of Mulliken charges =  -0.00000   2.00000

 Dipole moment (field-independent basis, Debye):
    X=             -0.0000    Y=              0.0000    Z=              0.0000  Tot=              0.0000
 Quadrupole moment (field-independent basis, Debye-Ang):
   XX=            -20.1425   YY=            -19.5943   ZZ=            -27.0455
   XY=              0.0000   XZ=              0.0000   YZ=              0.0000

 PMP2-0=-299.8922118\MP4SDQ=-299.7983249\CCSD=-299.7909494\CCSD(T)=-299
 Normal termination of Gaussian 16 at Tue Feb 13 12:25:55 2024.
