 Gaussian 16, Revision A.03,
 Gaussian 16:  ES64L-G16RevA.03 25-Dec-2016

 -----------------------------------------------
 #p ROCCSD(T,MaxCyc=200)/cc-pVTZ SCF(MaxCyc=200)
 -----------------------------------------------

 --------
 O2_O2_80
 --------
 Symbolic Z-matrix:
 Charge =  0 Multiplicity = 3

                         Standard orientation:
 ---------------------------------------------------------------------
 Center     Atomic      Atomic             Coordinates (Angstroms)
 Number     Number       Type             X           Y           Z
 ---------------------------------------------------------------------
      1          8           0       -0.870000   -1.310000    0.000000
      2          8           0        0.290000   -1.310000    0.000000
      3          8           0        0.290000    0.730000    0.000000
      4          8           0        0.290000    1.890000    0.000000
 ---------------------------------------------------------------------

 SCF Done:  E(ROHF) =  -299.107201680     A.U. after   20 cycles
 E2 =    -0.1062715878D+01 EUMP2 =    -0.30016991755825D+03
 CCSD(T)
 CCSD(T)= -0.30020081567D+03

 The electronic state is 3-A'.
 Alpha  occ. eigenvalues --  -20.76391 -20.75988 -20.74702 -20.73874  -1.74441
 Alpha  occ. eigenvalues --   -1.72544  -1.15737  -1.12753  -0.85395  -0.83351
 Alpha  occ. eigenvalues --   -0.81482  -0.78176  -0.73932  -0.69478  -0.52158
 Alpha  occ. eigenvalues --   -0.50218  -0.33304
 Alpha virt. eigenvalues --   -0.07468   0.41436   0.46792   0.63295   0.69228
 Alpha virt. eigenvalues --    0.69501   0.70753   0.71232   0.74531   0.77020
 Alpha virt. eigenvalues --    0.78591   0.79243   0.85511   0.87227   0.89976

 Mulliken charges and spin densities:
               1          2
     1  O   -0.006920   0.467431
     2  O    0.043141   0.533328
     3  O   -0.022263   0.349578
     4  O   -0.013958   0.649663
 Sum of Mulliken charges =  -0.00000   2.00000

 Dipole moment (field-independent basis, Debye):
    X=              0.0796    Y=             -0.2271    Z=              0.0000  Tot=              0.2407
 Quadrupole moment (field-independent basis, Debye-Ang):
   XX=            -20.5964   YY=            -20.4198   ZZ=            -19.6564
   XY=              0.1555   XZ=              0.0000   YZ=              0.0000

 Normal termination of Gaussian 16 at Tue Feb 13 14:19:13 2024.
