 Gaussian 16, Revision A.03,
 Gaussian 16:  ES64L-G16RevA.03 25-Dec-2016

 -----------------------------------------------
 #p ROCCSD(T,MaxCyc=200)/cc-pVTZ SCF(MaxCyc=200)
 -----------------------------------------------

 --------
 O2_O2_46
 --------
 Symbolic Z-matrix:
 Charge =  0 Multiplicity = 3

                         Standard orientation:
 ---------------------------------------------------------------------
 Center     Atomic      Atomic             Coordinates (Angstroms)
 Number     Number       Type             X           Y           Z
 ---------------------------------------------------------------------
      1          8           0        0.615183   -1.705183    0.000000
      2          8           0       -0.205061   -0.884939    0.000000
      3          8           0       -0.205061    0.715061   -0.000000
      4          8           0       -0.205061    1.875061   -0.000000
 ---------------------------------------------------------------------

 SCF Done:  E(ROHF) =  -299.132435059     A.U. after   25 cycles
 E2 =    -0.9388531170D+00 EUMP2 =    -0.30007128817629D+03
 CCSD(T)
 CCSD(T)= -0.30009801219D+03

 The electronic state is 3-A".
 Alpha  occ. eigenvalues --  -20.75229 -20.73895 -20.72275 -20.68534  -1.76410
 Alpha  occ. eigenvalues --   -1.68721  -1.25470  -1.05753  -0.86019  -0.85640
 Alpha  occ. eigenvalues --   -0.84312  -0.77271  -0.70438  -0.60232  -0.53369
 Alpha  occ. eigenvalues --   -0.52022  -0.42225
 Alpha virt. eigenvalues --    0.07706   0.45699   0.49464   0.64657   0.65522
 Alpha virt. eigenvalues --    0.70518   0.72411   0.72885   0.75498   0.79177
 Alpha virt. eigenvalues --    0.80685   0.81309   0.85630   0.94053   0.96952

 Mulliken charges and spin densities:
               1          2
     1  O   -0.084762   0.008942
     2  O    0.042804   0.013889
     3  O    0.040356   0.932527
     4  O    0.001603   1.044642
 Sum of Mulliken charges =  -0.00000   2.00000

 Dipole moment (field-independent basis, Debye):
    X=             -0.3234    Y=              0.8195    Z=             -0.0000  Tot=              0.8810
 Quadrupole moment (field-independent basis, Debye-Ang):
   XX=            -19.8546   YY=            -21.2979   ZZ=            -20.3670
   XY=              1.0817   XZ=             -0.0000   YZ=              0.0000

 \CCSD=-300.0568555\CCSD(T)=-300.0980122\RMSD=5.479e-09\PG=CS [SG(O4)]\
 Normal termination of Gaussian 16 at Tue Feb 13 13:10:01 2024.
