 Gaussian 16, Revision A.03,
 Gaussian 16:  ES64L-G16RevA.03 25-Dec-2016

 -----------------------------------------------
 #p ROCCSD(T,MaxCyc=200)/cc-pVTZ SCF(MaxCyc=200)
 -----------------------------------------------

 --------
 O2_O2_49
 --------
 Symbolic Z-matrix:
 Charge =  0 Multiplicity = 3

                         Standard orientation:
 ---------------------------------------------------------------------
 Center     Atomic      Atomic             Coordinates (Angstroms)
 Number     Number       Type             X           Y           Z
 ---------------------------------------------------------------------
      1          8           0        0.615183   -1.725183    0.000000
      2          8           0       -0.205061   -0.904939    0.000000
      3          8           0       -0.205061    0.735061   -0.000000
      4          8           0       -0.205061    1.895061   -0.000000
 ---------------------------------------------------------------------

 SCF Done:  E(ROHF) =  -299.148393390     A.U. after   25 cycles
 E2 =    -0.9373751943D+00 EUMP2 =    -0.30008576858478D+03
 CCSD(T)
 CCSD(T)= -0.30011181025D+03

 The electronic state is 3-A".
 Alpha  occ. eigenvalues --  -20.75027 -20.73696 -20.72166 -20.69131  -1.76051
 Alpha  occ. eigenvalues --   -1.68804  -1.24333  -1.06027  -0.85617  -0.85296
 Alpha  occ. eigenvalues --   -0.83989  -0.77384  -0.70507  -0.61264  -0.53050
 Alpha  occ. eigenvalues --   -0.51853  -0.42504
 Alpha virt. eigenvalues --    0.07430   0.45618   0.49237   0.64676   0.65564
 Alpha virt. eigenvalues --    0.70915   0.72295   0.72813   0.75851   0.78957
 Alpha virt. eigenvalues --    0.80863   0.80935   0.85534   0.94071   0.96735

 Mulliken charges and spin densities:
               1          2
     1  O   -0.071729   0.007485
     2  O    0.037206   0.010951
     3  O    0.034543   0.940253
     4  O   -0.000020   1.041311
 Sum of Mulliken charges =  -0.00000   2.00000

 Dipole moment (field-independent basis, Debye):
    X=             -0.2826    Y=              0.7002    Z=              0.0000  Tot=              0.7551
 Quadrupole moment (field-independent basis, Debye-Ang):
   XX=            -19.8143   YY=            -21.1769   ZZ=            -20.3870
   XY=              1.0316   XZ=             -0.0000   YZ=              0.0000

 \CCSD=-300.0711487\CCSD(T)=-300.1118102\RMSD=7.287e-09\PG=CS [SG(O4)]\
 Normal termination of Gaussian 16 at Tue Feb 13 13:15:12 2024.
