 Gaussian 16, Revision A.03,
 Gaussian 16:  ES64L-G16RevA.03 25-Dec-2016

 -----------------------------------------------
 #p ROCCSD(T,MaxCyc=200)/cc-pVTZ SCF(MaxCyc=200)
 -----------------------------------------------

 --------
 O2_O2_47
 --------
 Symbolic Z-matrix:
 Charge =  0 Multiplicity = 3

                         Standard orientation:
 ---------------------------------------------------------------------
 Center     Atomic      Atomic             Coordinates (Angstroms)
 Number     Number       Type             X           Y           Z
 ---------------------------------------------------------------------
      1          8           0       -0.870000   -1.090000    0.000000
      2          8           0        0.290000   -1.090000    0.000000
      3          8           0        0.290000    0.510000    0.000000
      4          8           0        0.290000    1.670000    0.000000
 ---------------------------------------------------------------------

 SCF Done:  E(ROHF) =  -299.105731601     A.U. after   23 cycles
 E2 =    -0.9475198271D+00 EUMP2 =    -0.30005325142825D+03
 CCSD(T)
 CCSD(T)= -0.30007750672D+03

 The electronic state is 3-A".
 Alpha  occ. eigenvalues --  -20.76645 -20.74524 -20.73537 -20.66122  -1.78041
 Alpha  occ. eigenvalues --   -1.69198  -1.23772  -1.07257  -0.87293  -0.87106
 Alpha  occ. eigenvalues --   -0.85103  -0.77138  -0.73255  -0.57084  -0.53506
 Alpha  occ. eigenvalues --   -0.52351  -0.42515
 Alpha virt. eigenvalues --    0.07039   0.43639   0.45875   0.64976   0.65058
 Alpha virt. eigenvalues --    0.67314   0.71074   0.73046   0.74252   0.80138
 Alpha virt. eigenvalues --    0.82703   0.83106   0.86211   0.87749   0.99152

 Mulliken charges and spin densities:
               1          2
     1  O   -0.130680  -0.000061
     2  O    0.072352   0.023025
     3  O    0.039680   0.915789
     4  O    0.018648   1.061246
 Sum of Mulliken charges =  -0.00000   2.00000

 Dipole moment (field-independent basis, Debye):
    X=              0.7776    Y=              0.8259    Z=              0.0000  Tot=              1.1344
 Quadrupole moment (field-independent basis, Debye-Ang):
   XX=            -20.7183   YY=            -19.9923   ZZ=            -20.3337
   XY=             -0.6666   XZ=              0.0000   YZ=              0.0000

 Normal termination of Gaussian 16 at Tue Feb 13 13:11:59 2024.
