 Gaussian 16, Revision A.03,
 Gaussian 16:  ES64L-G16RevA.03 25-Dec-2016

 -----------------------------------------------
 #p ROCCSD(T,MaxCyc=200)/cc-pVTZ SCF(MaxCyc=200)
 -----------------------------------------------

 ---------
 O2_O2_236
 ---------
 Symbolic Z-matrix:
 Charge =  0 Multiplicity = 3

                         Standard orientation:
 ---------------------------------------------------------------------
 Center     Atomic      Atomic             Coordinates (Angstroms)
 Number     Number       Type             X           Y           Z
 ---------------------------------------------------------------------
      1          8           0       -0.870000   -2.350000    0.000000
      2          8           0        0.290000   -2.350000    0.000000
      3          8           0        0.290000    1.770000    0.000000
      4          8           0        0.290000    2.930000    0.000000
 ---------------------------------------------------------------------

 SCF Done:  E(ROHF) =  -299.252764794     A.U. after   32 cycles
 E2 =    -0.9207297187D+00 EUMP2 =    -0.30017349451307D+03
 CCSD(T)
 CCSD(T)= -0.30020037267D+03

 The electronic state is 3-A".
 Alpha  occ. eigenvalues --  -20.73998 -20.73921 -20.72996 -20.72880  -1.74495
 Alpha  occ. eigenvalues --   -1.69928  -1.17039  -1.08619  -0.83777  -0.83770
 Alpha  occ. eigenvalues --   -0.78705  -0.78121  -0.75240  -0.67457  -0.50972
 Alpha  occ. eigenvalues --   -0.50967  -0.44874
 Alpha virt. eigenvalues --    0.04900   0.41380   0.42862   0.66600   0.68003
 Alpha virt. eigenvalues --    0.70326   0.70528   0.72085   0.73630   0.78002
 Alpha virt. eigenvalues --    0.79026   0.79803   0.81045   0.82559   0.84674

 Mulliken charges and spin densities:
               1          2
     1  O    0.000232   1.000258
     2  O   -0.000124   0.999728
     3  O   -0.000561   0.000014
     4  O    0.000453   0.000000
 Sum of Mulliken charges =  -0.00000   2.00000

 Dipole moment (field-independent basis, Debye):
    X=             -0.0005    Y=              0.0039    Z=              0.0000  Tot=              0.0040
 Quadrupole moment (field-independent basis, Debye-Ang):
   XX=            -21.1122   YY=            -20.2946   ZZ=            -18.8837
   XY=              0.0036   XZ=              0.0000   YZ=              0.0000

 Normal termination of Gaussian 16 at Tue Feb 13 18:28:44 2024.
