 Gaussian 16, Revision A.03,
 Gaussian 16:  ES64L-G16RevA.03 25-Dec-2016

 -----------------------------------------------
 #p ROCCSD(T,MaxCyc=200)/cc-pVTZ SCF(MaxCyc=200)
 -----------------------------------------------

 --------
 O2_O2_66
 --------
 Symbolic Z-matrix:
 Charge =  0 Multiplicity = 3

                         Standard orientation:
 ---------------------------------------------------------------------
 Center     Atomic      Atomic             Coordinates (Angstroms)
 Number     Number       Type             X           Y           Z
 ---------------------------------------------------------------------
      1          8           0        0.000000    0.000000    2.100000
      2          8           0        0.000000    0.000000    0.940000
      3          8           0        0.000000    0.000000   -0.940000
      4          8           0        0.000000    0.000000   -2.100000
 ---------------------------------------------------------------------

 SCF Done:  E(ROHF) =  -299.064866738     A.U. after   13 cycles
 E2 =    -0.1076293459D+01 EUMP2 =    -0.30014116019678D+03
 CCSD(T)
 CCSD(T)= -0.30014922717D+03

 Unable to determine electronic state:  an orbital has unidentified symmetry.
 Alpha  occ. eigenvalues --  -20.77083 -20.77081 -20.73554 -20.73553  -1.74153
 Alpha  occ. eigenvalues --   -1.73064  -1.19551  -1.09968  -0.83448  -0.83134
 Alpha  occ. eigenvalues --   -0.81482  -0.77869  -0.74601  -0.70836  -0.50308
 Alpha  occ. eigenvalues --   -0.46683  -0.34260
 Alpha virt. eigenvalues --   -0.10674   0.44946   0.48809   0.64888   0.65506
 Alpha virt. eigenvalues --    0.71531   0.71584   0.72033   0.76530   0.77672
 Alpha virt. eigenvalues --    0.78768   0.84354   0.85212   0.93907   0.95772

 Mulliken charges and spin densities:
               1          2
     1  O   -0.065635   0.462429
     2  O    0.065635   0.537571
     3  O    0.065635   0.537571
     4  O   -0.065635   0.462429
 Sum of Mulliken charges =  -0.00000   2.00000

 Dipole moment (field-independent basis, Debye):
    X=             -0.0000    Y=             -0.0000    Z=              0.0000  Tot=              0.0000
 Quadrupole moment (field-independent basis, Debye-Ang):
   XX=            -20.7327   YY=            -19.1437   ZZ=            -22.1530
   XY=              0.0000   XZ=              0.0000   YZ=              0.0000

 PMP2-0=-300.1411602\MP4SDQ=-300.0721021\CCSD=-300.0667046\CCSD(T)=-300
 Normal termination of Gaussian 16 at Tue Feb 13 13:49:10 2024.
