 Gaussian 16, Revision A.03,
 Gaussian 16:  ES64L-G16RevA.03 25-Dec-2016

 -----------------------------------------------
 #p ROCCSD(T,MaxCyc=200)/cc-pVTZ SCF(MaxCyc=200)
 -----------------------------------------------

 ---------
 O2_O2_269
 ---------
 Symbolic Z-matrix:
 Charge =  0 Multiplicity = 3

                         Standard orientation:
 ---------------------------------------------------------------------
 Center     Atomic      Atomic             Coordinates (Angstroms)
 Number     Number       Type             X           Y           Z
 ---------------------------------------------------------------------
      1          8           0       -0.870000   -2.570000    0.000000
      2          8           0        0.290000   -2.570000    0.000000
      3          8           0        0.290000    1.990000    0.000000
      4          8           0        0.290000    3.150000    0.000000
 ---------------------------------------------------------------------

 SCF Done:  E(ROHF) =  -299.252738751     A.U. after   28 cycles
 E2 =    -0.9206530230D+00 EUMP2 =    -0.30017339177445D+03
 CCSD(T)
 CCSD(T)= -0.30020028363D+03

 The electronic state is 3-A".
 Alpha  occ. eigenvalues --  -20.74006 -20.73930 -20.72987 -20.72872  -1.74505
 Alpha  occ. eigenvalues --   -1.69921  -1.17050  -1.08610  -0.83786  -0.83783
 Alpha  occ. eigenvalues --   -0.78697  -0.78131  -0.75232  -0.67449  -0.50981
 Alpha  occ. eigenvalues --   -0.50979  -0.44866
 Alpha virt. eigenvalues --    0.04908   0.41433   0.43166   0.67761   0.68015
 Alpha virt. eigenvalues --    0.70362   0.70523   0.72070   0.72713   0.78018
 Alpha virt. eigenvalues --    0.79459   0.79798   0.80323   0.82203   0.84671

 Mulliken charges and spin densities:
               1          2
     1  O    0.000083   1.000086
     2  O   -0.000061   0.999912
     3  O   -0.000309   0.000003
     4  O    0.000287  -0.000000
 Sum of Mulliken charges =  -0.00000   2.00000

 Dipole moment (field-independent basis, Debye):
    X=              0.0000    Y=              0.0036    Z=              0.0000  Tot=              0.0036
 Quadrupole moment (field-independent basis, Debye-Ang):
   XX=            -21.1129   YY=            -20.3001   ZZ=            -18.8836
   XY=              0.0017   XZ=              0.0000   YZ=              0.0000

 Normal termination of Gaussian 16 at Tue Feb 13 19:07:21 2024.
