 Gaussian 16, Revision A.03,
 Gaussian 16:  ES64L-G16RevA.03 25-Dec-2016

 -----------------------------------------------
 #p ROCCSD(T,MaxCyc=200)/cc-pVTZ SCF(MaxCyc=200)
 -----------------------------------------------

 ---------
 O2_O2_290
 ---------
 Symbolic Z-matrix:
 Charge =  0 Multiplicity = 3

                         Standard orientation:
 ---------------------------------------------------------------------
 Center     Atomic      Atomic             Coordinates (Angstroms)
 Number     Number       Type             X           Y           Z
 ---------------------------------------------------------------------
      1          8           0       -0.870000   -2.710000    0.000000
      2          8           0        0.290000   -2.710000    0.000000
      3          8           0        0.290000    2.130000    0.000000
      4          8           0        0.290000    3.290000    0.000000
 ---------------------------------------------------------------------

 SCF Done:  E(ROHF) =  -299.252753170     A.U. after   54 cycles
 E2 =    -0.9206350364D+00 EUMP2 =    -0.30017338820599D+03
 CCSD(T)
 CCSD(T)= -0.30020028132D+03

 The electronic state is 3-A".
 Alpha  occ. eigenvalues --  -20.74165 -20.74078 -20.72921 -20.72805  -1.74655
 Alpha  occ. eigenvalues --   -1.69854  -1.17205  -1.08543  -0.83935  -0.83935
 Alpha  occ. eigenvalues --   -0.78632  -0.78290  -0.75164  -0.67382  -0.51133
 Alpha  occ. eigenvalues --   -0.51133  -0.44801
 Alpha virt. eigenvalues --    0.04976   0.41239   0.43305   0.67878   0.67880
 Alpha virt. eigenvalues --    0.70390   0.70424   0.72061   0.72570   0.77882
 Alpha virt. eigenvalues --    0.79646   0.79653   0.79956   0.82228   0.84755

 Mulliken charges and spin densities:
               1          2
     1  O   -0.000095   0.000000
     2  O    0.000102   0.000000
     3  O   -0.001543   0.998292
     4  O    0.001535   1.001708
 Sum of Mulliken charges =  -0.00000   2.00000

 Dipole moment (field-independent basis, Debye):
    X=              0.0014    Y=              0.0128    Z=              0.0000  Tot=              0.0129
 Quadrupole moment (field-independent basis, Debye-Ang):
   XX=            -20.3059   YY=            -19.4284   ZZ=            -20.5132
   XY=              0.0030   XZ=              0.0000   YZ=              0.0000

 Normal termination of Gaussian 16 at Tue Feb 13 19:24:31 2024.
