 Gaussian 16, Revision A.03,
 Gaussian 16:  ES64L-G16RevA.03 25-Dec-2016

 -----------------------------------------------
 #p ROCCSD(T,MaxCyc=200)/cc-pVTZ SCF(MaxCyc=200)
 -----------------------------------------------

 ---------
 O2_O2_220
 ---------
 Symbolic Z-matrix:
 Charge =  0 Multiplicity = 3

                         Standard orientation:
 ---------------------------------------------------------------------
 Center     Atomic      Atomic             Coordinates (Angstroms)
 Number     Number       Type             X           Y           Z
 ---------------------------------------------------------------------
      1          8           0        0.615183   -2.865183   -0.000000
      2          8           0       -0.205061   -2.044939   -0.000000
      3          8           0       -0.205061    1.875062    0.000000
      4          8           0       -0.205061    3.035060    0.000000
 ---------------------------------------------------------------------

 SCF Done:  E(ROHF) =  -299.252768816     A.U. after   26 cycles
 E2 =    -0.9207750957D+00 EUMP2 =    -0.30017354391193D+03
 CCSD(T)
 CCSD(T)= -0.30020040863D+03

 The electronic state is 3-A".
 Alpha  occ. eigenvalues --  -20.74009 -20.73931 -20.72937 -20.72821  -1.74506
 Alpha  occ. eigenvalues --   -1.69872  -1.17047  -1.08556  -0.83787  -0.83782
 Alpha  occ. eigenvalues --   -0.78648  -0.78129  -0.75174  -0.67400  -0.50981
 Alpha  occ. eigenvalues --   -0.50975  -0.44816
 Alpha virt. eigenvalues --    0.04959   0.39121   0.44868   0.66919   0.67991
 Alpha virt. eigenvalues --    0.69753   0.70473   0.70572   0.74108   0.77767
 Alpha virt. eigenvalues --    0.78770   0.79732   0.82329   0.84764   0.84818

 Mulliken charges and spin densities:
               1          2
     1  O   -0.000214   0.999517
     2  O    0.000336   1.000400
     3  O   -0.000135   0.000083
     4  O    0.000013   0.000000
 Sum of Mulliken charges =  -0.00000   2.00000

 Dipole moment (field-independent basis, Debye):
    X=             -0.0025    Y=             -0.0013    Z=              0.0000  Tot=              0.0028
 Quadrupole moment (field-independent basis, Debye-Ang):
   XX=            -20.8138   YY=            -20.6281   ZZ=            -18.8840
   XY=              0.3034   XZ=             -0.0000   YZ=             -0.0000

 1\CCSD=-300.1623308\CCSD(T)=-300.2004086\RMSD=2.745e-09\PG=CS [SG(O4)]
 Normal termination of Gaussian 16 at Tue Feb 13 18:09:16 2024.
