 Gaussian 16, Revision A.03,
 Gaussian 16:  ES64L-G16RevA.03 25-Dec-2016

 -----------------------------------------------
 #p ROCCSD(T,MaxCyc=200)/cc-pVTZ SCF(MaxCyc=200)
 -----------------------------------------------

 ---------
 O2_O2_238
 ---------
 Symbolic Z-matrix:
 Charge =  0 Multiplicity = 3

                         Standard orientation:
 ---------------------------------------------------------------------
 Center     Atomic      Atomic             Coordinates (Angstroms)
 Number     Number       Type             X           Y           Z
 ---------------------------------------------------------------------
      1          8           0        0.615183   -2.985183    0.000000
      2          8           0       -0.205061   -2.164939    0.000000
      3          8           0       -0.205061    1.995061   -0.000000
      4          8           0       -0.205061    3.155061   -0.000000
 ---------------------------------------------------------------------

 SCF Done:  E(ROHF) =  -299.252755079     A.U. after   25 cycles
 E2 =    -0.9207109397D+00 EUMP2 =    -0.30017346601874D+03
 CCSD(T)
 CCSD(T)= -0.30020034225D+03

 The electronic state is 3-A".
 Alpha  occ. eigenvalues --  -20.74011 -20.73934 -20.72941 -20.72825  -1.74509
 Alpha  occ. eigenvalues --   -1.69875  -1.17052  -1.08561  -0.83790  -0.83786
 Alpha  occ. eigenvalues --   -0.78652  -0.78133  -0.75180  -0.67404  -0.50985
 Alpha  occ. eigenvalues --   -0.50981  -0.44820
 Alpha virt. eigenvalues --    0.04956   0.39989   0.44333   0.67603   0.68006
 Alpha virt. eigenvalues --    0.70314   0.70540   0.70566   0.73664   0.77768
 Alpha virt. eigenvalues --    0.78925   0.79775   0.82244   0.82780   0.84746

 Mulliken charges and spin densities:
               1          2
     1  O   -0.000310   0.999557
     2  O    0.000372   1.000401
     3  O    0.000057   0.000042
     4  O   -0.000119  -0.000000
 Sum of Mulliken charges =  -0.00000   2.00000

 Dipole moment (field-independent basis, Debye):
    X=             -0.0022    Y=             -0.0003    Z=             -0.0000  Tot=              0.0022
 Quadrupole moment (field-independent basis, Debye-Ang):
   XX=            -20.8139   YY=            -20.6273   ZZ=            -18.8839
   XY=              0.3032   XZ=              0.0000   YZ=              0.0000

 CCSD=-300.1622716\CCSD(T)=-300.2003422\RMSD=4.027e-09\PG=CS [SG(O4)]\\
 Normal termination of Gaussian 16 at Tue Feb 13 18:30:31 2024.
