 Gaussian 16, Revision A.03,
 Gaussian 16:  ES64L-G16RevA.03 25-Dec-2016

 -----------------------------------------------
 #p ROCCSD(T,MaxCyc=200)/cc-pVTZ SCF(MaxCyc=200)
 -----------------------------------------------

 ---------
 O2_O2_206
 ---------
 Symbolic Z-matrix:
 Charge =  0 Multiplicity = 3

                         Standard orientation:
 ---------------------------------------------------------------------
 Center     Atomic      Atomic             Coordinates (Angstroms)
 Number     Number       Type             X           Y           Z
 ---------------------------------------------------------------------
      1          8           0       -0.870000   -2.150000    0.000000
      2          8           0        0.290000   -2.150000    0.000000
      3          8           0        0.290000    1.570000    0.000000
      4          8           0        0.290000    2.730000    0.000000
 ---------------------------------------------------------------------

 SCF Done:  E(ROHF) =  -299.252866971     A.U. after   59 cycles
 E2 =    -0.9208582583D+00 EUMP2 =    -0.30017372522913D+03
 CCSD(T)
 CCSD(T)= -0.30020057656D+03

 The electronic state is 3-A".
 Alpha  occ. eigenvalues --  -20.74289 -20.74168 -20.72897 -20.72781  -1.74756
 Alpha  occ. eigenvalues --   -1.69825  -1.17317  -1.08513  -0.84037  -0.84036
 Alpha  occ. eigenvalues --   -0.78603  -0.78412  -0.75136  -0.67341  -0.51238
 Alpha  occ. eigenvalues --   -0.51238  -0.44773
 Alpha virt. eigenvalues --    0.04999   0.40038   0.43424   0.65257   0.67694
 Alpha virt. eigenvalues --    0.67720   0.70466   0.72569   0.74888   0.78172
 Alpha virt. eigenvalues --    0.79604   0.80168   0.80532   0.82321   0.86184

 Mulliken charges and spin densities:
               1          2
     1  O   -0.000229   0.000009
     2  O    0.000630   0.000011
     3  O   -0.004185   0.996125
     4  O    0.003784   1.003854
 Sum of Mulliken charges =  -0.00000   2.00000

 Dipole moment (field-independent basis, Debye):
    X=              0.0036    Y=              0.0251    Z=              0.0000  Tot=              0.0254
 Quadrupole moment (field-independent basis, Debye-Ang):
   XX=            -20.3052   YY=            -19.3693   ZZ=            -20.5125
   XY=              0.0081   XZ=              0.0000   YZ=              0.0000

 Normal termination of Gaussian 16 at Tue Feb 13 17:52:21 2024.
