 Gaussian 16, Revision A.03,
 Gaussian 16:  ES64L-G16RevA.03 25-Dec-2016

 -----------------------------------------------
 #p ROCCSD(T,MaxCyc=200)/cc-pVTZ SCF(MaxCyc=200)
 -----------------------------------------------

 ---------
 O2_O2_253
 ---------
 Symbolic Z-matrix:
 Charge =  0 Multiplicity = 3

                         Standard orientation:
 ---------------------------------------------------------------------
 Center     Atomic      Atomic             Coordinates (Angstroms)
 Number     Number       Type             X           Y           Z
 ---------------------------------------------------------------------
      1          8           0        0.615183   -3.085183    0.000000
      2          8           0       -0.205061   -2.264939   -0.000000
      3          8           0       -0.205061    2.095062   -0.000000
      4          8           0       -0.205061    3.255060   -0.000000
 ---------------------------------------------------------------------

 SCF Done:  E(ROHF) =  -299.252744126     A.U. after   60 cycles
 E2 =    -0.9206788551D+00 EUMP2 =    -0.30017342298059D+03
 CCSD(T)
 CCSD(T)= -0.30020030565D+03

 The electronic state is 3-A".
 Alpha  occ. eigenvalues --  -20.73986 -20.73905 -20.72929 -20.72813  -1.74485
 Alpha  occ. eigenvalues --   -1.69862  -1.17025  -1.08548  -0.83765  -0.83764
 Alpha  occ. eigenvalues --   -0.78638  -0.78103  -0.75168  -0.67391  -0.50958
 Alpha  occ. eigenvalues --   -0.50958  -0.44805
 Alpha virt. eigenvalues --    0.04969   0.40593   0.44006   0.68032   0.68036
 Alpha virt. eigenvalues --    0.69899   0.70579   0.71385   0.73390   0.77700
 Alpha virt. eigenvalues --    0.79786   0.79815   0.80387   0.82931   0.84741

 Mulliken charges and spin densities:
               1          2
     1  O   -0.000252   0.000000
     2  O    0.000317   0.000001
     3  O    0.000904   1.001133
     4  O   -0.000969   0.998867
 Sum of Mulliken charges =   0.00000   2.00000

 Dipole moment (field-independent basis, Debye):
    X=             -0.0006    Y=             -0.0072    Z=             -0.0000  Tot=              0.0072
 Quadrupole moment (field-independent basis, Debye-Ang):
   XX=            -20.4107   YY=            -21.0587   ZZ=            -18.8840
   XY=             -0.0975   XZ=             -0.0000   YZ=              0.0000

 CCSD=-300.1622387\CCSD(T)=-300.2003056\RMSD=3.156e-09\PG=CS [SG(O4)]\\
 Normal termination of Gaussian 16 at Tue Feb 13 18:47:50 2024.
