 Gaussian 16, Revision A.03,
 Gaussian 16:  ES64L-G16RevA.03 25-Dec-2016

 -----------------------------------------------
 #p ROCCSD(T,MaxCyc=200)/cc-pVTZ SCF(MaxCyc=200)
 -----------------------------------------------

 ---------
 O2_O2_102
 ---------
 Symbolic Z-matrix:
 Charge =  0 Multiplicity = 3

                         Standard orientation:
 ---------------------------------------------------------------------
 Center     Atomic      Atomic             Coordinates (Angstroms)
 Number     Number       Type             X           Y           Z
 ---------------------------------------------------------------------
      1          8           0        0.000000    0.000000    2.340000
      2          8           0        0.000000    0.000000    1.180000
      3          8           0        0.000000    0.000000   -1.180000
      4          8           0        0.000000    0.000000   -2.340000
 ---------------------------------------------------------------------

 SCF Done:  E(ROHF) =  -299.062307639     A.U. after   13 cycles
 E2 =    -0.1116113073D+01 EUMP2 =    -0.30017842071142D+03
 CCSD(T)
 CCSD(T)= -0.30018317034D+03

 Unable to determine electronic state:  an orbital has unidentified symmetry.
 Alpha  occ. eigenvalues --  -20.76831 -20.76830 -20.74450 -20.74450  -1.73657
 Alpha  occ. eigenvalues --   -1.73392  -1.15442  -1.12457  -0.82639  -0.82073
 Alpha  occ. eigenvalues --   -0.80058  -0.76914  -0.75468  -0.75461  -0.49211
 Alpha  occ. eigenvalues --   -0.47928  -0.31620
 Alpha virt. eigenvalues --   -0.13765   0.42402   0.48631   0.64746   0.65212
 Alpha virt. eigenvalues --    0.70043   0.70796   0.70897   0.75969   0.76346
 Alpha virt. eigenvalues --    0.77379   0.83335   0.84983   0.86663   0.91456

 Mulliken charges and spin densities:
               1          2
     1  O   -0.037108   0.469922
     2  O    0.037108   0.530078
     3  O    0.037108   0.530078
     4  O   -0.037108   0.469922
 Sum of Mulliken charges =  -0.00000   2.00000

 Dipole moment (field-independent basis, Debye):
    X=             -0.0000    Y=              0.0000    Z=              0.0000  Tot=              0.0000
 Quadrupole moment (field-independent basis, Debye-Ang):
   XX=            -20.7528   YY=            -19.1480   ZZ=            -21.6178
   XY=              0.0000   XZ=              0.0000   YZ=              0.0000

 \PMP2-0=-300.1784207\MP4SDQ=-300.0777096\CCSD=-300.0788241\CCSD(T)=-30
 Normal termination of Gaussian 16 at Tue Feb 13 15:06:41 2024.
