 Gaussian 16, Revision A.03,
 Gaussian 16:  ES64L-G16RevA.03 25-Dec-2016

 -----------------------------------------------
 #p ROCCSD(T,MaxCyc=200)/cc-pVTZ SCF(MaxCyc=200)
 -----------------------------------------------

 ---------
 O2_O2_244
 ---------
 Symbolic Z-matrix:
 Charge =  0 Multiplicity = 3

                         Standard orientation:
 ---------------------------------------------------------------------
 Center     Atomic      Atomic             Coordinates (Angstroms)
 Number     Number       Type             X           Y           Z
 ---------------------------------------------------------------------
      1          8           0        0.615183   -3.025183    0.000000
      2          8           0       -0.205061   -2.204939   -0.000000
      3          8           0       -0.205061    2.035061   -0.000000
      4          8           0       -0.205061    3.195061   -0.000000
 ---------------------------------------------------------------------

 SCF Done:  E(ROHF) =  -299.252750253     A.U. after   25 cycles
 E2 =    -0.9206950110D+00 EUMP2 =    -0.30017344526433D+03
 CCSD(T)
 CCSD(T)= -0.30020032460D+03

 The electronic state is 3-A".
 Alpha  occ. eigenvalues --  -20.74012 -20.73935 -20.72942 -20.72826  -1.74510
 Alpha  occ. eigenvalues --   -1.69876  -1.17053  -1.08562  -0.83791  -0.83788
 Alpha  occ. eigenvalues --   -0.78653  -0.78134  -0.75182  -0.67405  -0.50986
 Alpha  occ. eigenvalues --   -0.50982  -0.44821
 Alpha virt. eigenvalues --    0.04955   0.40244   0.44167   0.67730   0.68008
 Alpha virt. eigenvalues --    0.70378   0.70564   0.70717   0.73512   0.77794
 Alpha virt. eigenvalues --    0.78982   0.79781   0.82207   0.82280   0.84735

 Mulliken charges and spin densities:
               1          2
     1  O   -0.000329   0.999566
     2  O    0.000376   1.000402
     3  O    0.000092   0.000032
     4  O   -0.000139  -0.000000
 Sum of Mulliken charges =  -0.00000   2.00000

 Dipole moment (field-independent basis, Debye):
    X=             -0.0021    Y=             -0.0000    Z=             -0.0000  Tot=              0.0021
 Quadrupole moment (field-independent basis, Debye-Ang):
   XX=            -20.8139   YY=            -20.6271   ZZ=            -18.8838
   XY=              0.3031   XZ=             -0.0000   YZ=              0.0000

 4\CCSD=-300.1622556\CCSD(T)=-300.2003246\RMSD=3.787e-09\PG=CS [SG(O4)]
 Normal termination of Gaussian 16 at Tue Feb 13 18:37:27 2024.
