 Gaussian 16, Revision A.03,
 Gaussian 16:  ES64L-G16RevA.03 25-Dec-2016

 -----------------------------------------------
 #p ROCCSD(T,MaxCyc=200)/cc-pVTZ SCF(MaxCyc=200)
 -----------------------------------------------

 ---------
 O2_O2_257
 ---------
 Symbolic Z-matrix:
 Charge =  0 Multiplicity = 3

                         Standard orientation:
 ---------------------------------------------------------------------
 Center     Atomic      Atomic             Coordinates (Angstroms)
 Number     Number       Type             X           Y           Z
 ---------------------------------------------------------------------
      1          8           0       -0.870000   -2.490000    0.000000
      2          8           0        0.290000   -2.490000    0.000000
      3          8           0        0.290000    1.910000    0.000000
      4          8           0        0.290000    3.070000    0.000000
 ---------------------------------------------------------------------

 SCF Done:  E(ROHF) =  -299.252745739     A.U. after   27 cycles
 E2 =    -0.9206734931D+00 EUMP2 =    -0.30017341923177D+03
 CCSD(T)
 CCSD(T)= -0.30020030726D+03

 The electronic state is 3-A".
 Alpha  occ. eigenvalues --  -20.74003 -20.73927 -20.72990 -20.72874  -1.74502
 Alpha  occ. eigenvalues --   -1.69923  -1.17046  -1.08613  -0.83783  -0.83779
 Alpha  occ. eigenvalues --   -0.78700  -0.78127  -0.75234  -0.67452  -0.50978
 Alpha  occ. eigenvalues --   -0.50975  -0.44869
 Alpha virt. eigenvalues --    0.04906   0.41426   0.43098   0.67495   0.68015
 Alpha virt. eigenvalues --    0.70356   0.70522   0.72074   0.72928   0.78017
 Alpha virt. eigenvalues --    0.79321   0.79800   0.80541   0.82255   0.84670

 Mulliken charges and spin densities:
               1          2
     1  O    0.000125   1.000133
     2  O   -0.000084   0.999862
     3  O   -0.000372   0.000005
     4  O    0.000330  -0.000000
 Sum of Mulliken charges =  -0.00000   2.00000

 Dipole moment (field-independent basis, Debye):
    X=             -0.0001    Y=              0.0038    Z=              0.0000  Tot=              0.0038
 Quadrupole moment (field-independent basis, Debye-Ang):
   XX=            -21.1127   YY=            -20.2986   ZZ=            -18.8836
   XY=              0.0023   XZ=              0.0000   YZ=              0.0000

 Normal termination of Gaussian 16 at Tue Feb 13 18:52:54 2024.
