 Gaussian 16, Revision A.03,
 Gaussian 16:  ES64L-G16RevA.03 25-Dec-2016

 -----------------------------------------------
 #p ROCCSD(T,MaxCyc=200)/cc-pVTZ SCF(MaxCyc=200)
 -----------------------------------------------

 ---------
 O2_O2_223
 ---------
 Symbolic Z-matrix:
 Charge =  0 Multiplicity = 3

                         Standard orientation:
 ---------------------------------------------------------------------
 Center     Atomic      Atomic             Coordinates (Angstroms)
 Number     Number       Type             X           Y           Z
 ---------------------------------------------------------------------
      1          8           0        0.615183   -2.885183   -0.000000
      2          8           0       -0.205061   -2.064939   -0.000000
      3          8           0       -0.205061    1.895061    0.000000
      4          8           0       -0.205061    3.055061    0.000000
 ---------------------------------------------------------------------

 SCF Done:  E(ROHF) =  -299.252766876     A.U. after   27 cycles
 E2 =    -0.9207627118D+00 EUMP2 =    -0.30017352958793D+03
 CCSD(T)
 CCSD(T)= -0.30020039642D+03

 The electronic state is 3-A".
 Alpha  occ. eigenvalues --  -20.74009 -20.73932 -20.72938 -20.72822  -1.74506
 Alpha  occ. eigenvalues --   -1.69872  -1.17048  -1.08557  -0.83787  -0.83782
 Alpha  occ. eigenvalues --   -0.78649  -0.78130  -0.75175  -0.67401  -0.50982
 Alpha  occ. eigenvalues --   -0.50976  -0.44816
 Alpha virt. eigenvalues --    0.04959   0.39271   0.44778   0.67066   0.67995
 Alpha virt. eigenvalues --    0.69843   0.70469   0.70571   0.74037   0.77757
 Alpha virt. eigenvalues --    0.78796   0.79743   0.82309   0.84413   0.84801

 Mulliken charges and spin densities:
               1          2
     1  O   -0.000233   0.999526
     2  O    0.000344   1.000399
     3  O   -0.000093   0.000075
     4  O   -0.000018  -0.000000
 Sum of Mulliken charges =  -0.00000   2.00000

 Dipole moment (field-independent basis, Debye):
    X=             -0.0024    Y=             -0.0011    Z=              0.0000  Tot=              0.0027
 Quadrupole moment (field-independent basis, Debye-Ang):
   XX=            -20.8138   YY=            -20.6279   ZZ=            -18.8840
   XY=              0.3034   XZ=              0.0000   YZ=             -0.0000

 6\CCSD=-300.16232\CCSD(T)=-300.2003964\RMSD=5.559e-09\PG=CS [SG(O4)]\\
 Normal termination of Gaussian 16 at Tue Feb 13 18:12:54 2024.
