 Gaussian 16, Revision A.03,
 Gaussian 16:  ES64L-G16RevA.03 25-Dec-2016

 -----------------------------------------------
 #p ROCCSD(T,MaxCyc=200)/cc-pVTZ SCF(MaxCyc=200)
 -----------------------------------------------

 ---------
 O2_O2_142
 ---------
 Symbolic Z-matrix:
 Charge =  0 Multiplicity = 3

                         Standard orientation:
 ---------------------------------------------------------------------
 Center     Atomic      Atomic             Coordinates (Angstroms)
 Number     Number       Type             X           Y           Z
 ---------------------------------------------------------------------
      1          8           0        0.615183   -2.345183    0.000000
      2          8           0       -0.205061   -1.524939    0.000000
      3          8           0       -0.205061    1.355062   -0.000000
      4          8           0       -0.205061    2.515060   -0.000000
 ---------------------------------------------------------------------

 SCF Done:  E(ROHF) =  -299.252206284     A.U. after   26 cycles
 E2 =    -0.9217063823D+00 EUMP2 =    -0.30017391266620D+03
 CCSD(T)
 CCSD(T)= -0.30020061271D+03

 The electronic state is 3-A".
 Alpha  occ. eigenvalues --  -20.74141 -20.74043 -20.72825 -20.72706  -1.74634
 Alpha  occ. eigenvalues --   -1.69768  -1.17219  -1.08455  -0.83915  -0.83913
 Alpha  occ. eigenvalues --   -0.78544  -0.78422  -0.74951  -0.67282  -0.51117
 Alpha  occ. eigenvalues --   -0.51112  -0.44703
 Alpha virt. eigenvalues --    0.05052   0.39440   0.46755   0.65565   0.66629
 Alpha virt. eigenvalues --    0.66775   0.70689   0.71322   0.76071   0.77541
 Alpha virt. eigenvalues --    0.78576   0.79199   0.85207   0.86211   0.86475

 Mulliken charges and spin densities:
               1          2
     1  O   -0.001372   0.000028
     2  O    0.001094   0.000179
     3  O   -0.001082   0.997795
     4  O    0.001360   1.001999
 Sum of Mulliken charges =  -0.00000   2.00000

 Dipole moment (field-independent basis, Debye):
    X=             -0.0152    Y=              0.0286    Z=             -0.0000  Tot=              0.0324
 Quadrupole moment (field-independent basis, Debye-Ang):
   XX=            -19.5974   YY=            -20.2095   ZZ=            -20.5127
   XY=              0.7129   XZ=             -0.0000   YZ=              0.0000

 4\CCSD=-300.162435\CCSD(T)=-300.2006127\RMSD=3.169e-09\PG=CS [SG(O4)]\
 Normal termination of Gaussian 16 at Tue Feb 13 16:34:58 2024.
