 Gaussian 16, Revision A.03,
 Gaussian 16:  ES64L-G16RevA.03 25-Dec-2016

 -----------------------------------------------
 #p ROCCSD(T,MaxCyc=200)/cc-pVTZ SCF(MaxCyc=200)
 -----------------------------------------------

 -------
 O2_O2_7
 -------
 Symbolic Z-matrix:
 Charge =  0 Multiplicity = 3

                         Standard orientation:
 ---------------------------------------------------------------------
 Center     Atomic      Atomic             Coordinates (Angstroms)
 Number     Number       Type             X           Y           Z
 ---------------------------------------------------------------------
      1          8           0        0.615183   -1.445183    0.000000
      2          8           0       -0.205061   -0.624939    0.000000
      3          8           0       -0.205061    0.455061   -0.000000
      4          8           0       -0.205061    1.615061   -0.000000
 ---------------------------------------------------------------------

 SCF Done:  E(ROHF) =  -298.856371876     A.U. after   20 cycles
 E2 =    -0.9083585997D+00 EUMP2 =    -0.29976473047558D+03
 CCSD(T)
 CCSD(T)= -0.29980441738D+03

 The electronic state is 3-A".
 Alpha  occ. eigenvalues --  -20.84059 -20.78437 -20.73599 -20.61444  -1.96261
 Alpha  occ. eigenvalues --   -1.70455  -1.49671  -1.02564  -1.01611  -0.96698
 Alpha  occ. eigenvalues --   -0.87786  -0.77185  -0.76042  -0.55408  -0.53776
 Alpha  occ. eigenvalues --   -0.46135  -0.38436
 Alpha virt. eigenvalues --    0.22314   0.46863   0.53049   0.61794   0.62266
 Alpha virt. eigenvalues --    0.64386   0.66380   0.73971   0.76015   0.80297
 Alpha virt. eigenvalues --    0.83387   0.83894   0.89261   0.91211   0.96995

 Mulliken charges and spin densities:
               1          2
     1  O   -0.338379   0.408674
     2  O    0.241638   0.450102
     3  O    0.177835   0.435802
     4  O   -0.081094   0.705422
 Sum of Mulliken charges =  -0.00000   2.00000

 Dipole moment (field-independent basis, Debye):
    X=             -0.9447    Y=              1.4486    Z=             -0.0000  Tot=              1.7294
 Quadrupole moment (field-independent basis, Debye-Ang):
   XX=            -20.3861   YY=            -24.7911   ZZ=            -19.5720
   XY=              1.5757   XZ=             -0.0000   YZ=              0.0000

 CCSD=-299.7655887\CCSD(T)=-299.8044174\RMSD=7.666e-09\PG=CS [SG(O4)]\\
 Normal termination of Gaussian 16 at Tue Feb 13 12:01:22 2024.
