 Gaussian 16, Revision A.03,
 Gaussian 16:  ES64L-G16RevA.03 25-Dec-2016

 -----------------------------------------------
 #p ROCCSD(T,MaxCyc=200)/cc-pVTZ SCF(MaxCyc=200)
 -----------------------------------------------

 --------
 O2_O2_88
 --------
 Symbolic Z-matrix:
 Charge =  0 Multiplicity = 3

                         Standard orientation:
 ---------------------------------------------------------------------
 Center     Atomic      Atomic             Coordinates (Angstroms)
 Number     Number       Type             X           Y           Z
 ---------------------------------------------------------------------
      1          8           0        0.615183   -1.985183    0.000000
      2          8           0       -0.205061   -1.164939    0.000000
      3          8           0       -0.205061    0.995061   -0.000000
      4          8           0       -0.205061    2.155061   -0.000000
 ---------------------------------------------------------------------

 SCF Done:  E(ROHF) =  -299.092652864     A.U. after   21 cycles
 E2 =    -0.1096049010D+01 EUMP2 =    -0.30018870187424D+03
 CCSD(T)
 CCSD(T)= -0.30021897705D+03

 The electronic state is 3-A'.
 Alpha  occ. eigenvalues --  -20.76202 -20.75403 -20.74791 -20.74664  -1.73704
 Alpha  occ. eigenvalues --   -1.73103  -1.16142  -1.11815  -0.85098  -0.84049
 Alpha  occ. eigenvalues --   -0.80109  -0.75118  -0.74436  -0.73225  -0.51577
 Alpha  occ. eigenvalues --   -0.50399  -0.30962
 Alpha virt. eigenvalues --   -0.09886   0.42793   0.47418   0.63836   0.66580
 Alpha virt. eigenvalues --    0.69801   0.72005   0.72338   0.74970   0.78095
 Alpha virt. eigenvalues --    0.79425   0.79463   0.86053   0.89694   0.91665

 Mulliken charges and spin densities:
               1          2
     1  O    0.001965   0.576813
     2  O    0.007858   0.422979
     3  O    0.001174   0.387137
     4  O   -0.010997   0.613071
 Sum of Mulliken charges =  -0.00000   2.00000

 Dipole moment (field-independent basis, Debye):
    X=              0.0206    Y=             -0.0445    Z=              0.0000  Tot=              0.0490
 Quadrupole moment (field-independent basis, Debye-Ang):
   XX=            -20.0474   YY=            -20.4645   ZZ=            -20.1951
   XY=              0.3440   XZ=             -0.0000   YZ=              0.0000

 \CCSD=-300.1119673\CCSD(T)=-300.2189771\RMSD=1.924e-09\PG=CS [SG(O4)]\
 Normal termination of Gaussian 16 at Tue Feb 13 14:35:17 2024.
