 Gaussian 16, Revision A.03,
 Gaussian 16:  ES64L-G16RevA.03 25-Dec-2016

 -----------------------------------------------
 #p ROCCSD(T,MaxCyc=200)/cc-pVTZ SCF(MaxCyc=200)
 -----------------------------------------------

 ---------
 O2_O2_145
 ---------
 Symbolic Z-matrix:
 Charge =  0 Multiplicity = 3

                         Standard orientation:
 ---------------------------------------------------------------------
 Center     Atomic      Atomic             Coordinates (Angstroms)
 Number     Number       Type             X           Y           Z
 ---------------------------------------------------------------------
      1          8           0        0.615183   -2.365183   -0.000000
      2          8           0       -0.205061   -1.544939   -0.000000
      3          8           0       -0.205061    1.375061    0.000000
      4          8           0       -0.205061    2.535061    0.000000
 ---------------------------------------------------------------------

 SCF Done:  E(ROHF) =  -299.252306217     A.U. after   26 cycles
 E2 =    -0.9216292635D+00 EUMP2 =    -0.30017393548075D+03
 CCSD(T)
 CCSD(T)= -0.30020064918D+03

 The electronic state is 3-A".
 Alpha  occ. eigenvalues --  -20.74139 -20.74044 -20.72833 -20.72714  -1.74632
 Alpha  occ. eigenvalues --   -1.69774  -1.17211  -1.08461  -0.83913  -0.83911
 Alpha  occ. eigenvalues --   -0.78550  -0.78397  -0.74975  -0.67291  -0.51114
 Alpha  occ. eigenvalues --   -0.51110  -0.44711
 Alpha virt. eigenvalues --    0.05039   0.39211   0.46718   0.65426   0.66748
 Alpha virt. eigenvalues --    0.66835   0.70666   0.71313   0.76036   0.77623
 Alpha virt. eigenvalues --    0.78481   0.79144   0.84967   0.86180   0.86252

 Mulliken charges and spin densities:
               1          2
     1  O   -0.001241   0.000022
     2  O    0.000992   0.000161
     3  O   -0.001352   0.997925
     4  O    0.001601   1.001892
 Sum of Mulliken charges =  -0.00000   2.00000

 Dipole moment (field-independent basis, Debye):
    X=             -0.0144    Y=              0.0269    Z=              0.0000  Tot=              0.0305
 Quadrupole moment (field-independent basis, Debye-Ang):
   XX=            -19.5970   YY=            -20.2060   ZZ=            -20.5127
   XY=              0.7125   XZ=              0.0000   YZ=             -0.0000

 6\CCSD=-300.1624797\CCSD(T)=-300.2006492\RMSD=3.073e-09\PG=CS [SG(O4)]
 Normal termination of Gaussian 16 at Tue Feb 13 16:38:25 2024.
