 Gaussian 16, Revision A.03,
 Gaussian 16:  ES64L-G16RevA.03 25-Dec-2016

 -----------------------------------------------
 #p ROCCSD(T,MaxCyc=200)/cc-pVTZ SCF(MaxCyc=200)
 -----------------------------------------------

 --------
 O2_O2_51
 --------
 Symbolic Z-matrix:
 Charge =  0 Multiplicity = 3

                         Standard orientation:
 ---------------------------------------------------------------------
 Center     Atomic      Atomic             Coordinates (Angstroms)
 Number     Number       Type             X           Y           Z
 ---------------------------------------------------------------------
      1          8           0        0.000000    0.000000    2.000000
      2          8           0        0.000000    0.000000    0.840000
      3          8           0        0.000000    0.000000   -0.840000
      4          8           0        0.000000    0.000000   -2.000000
 ---------------------------------------------------------------------

 SCF Done:  E(ROHF) =  -299.067973826     A.U. after   16 cycles
 E2 =    -0.1036013842D+01 EUMP2 =    -0.30010398766800D+03
 CCSD(T)
 CCSD(T)= -0.30014088662D+03

 Unable to determine electronic state:  an orbital has unidentified symmetry.
 Alpha  occ. eigenvalues --  -20.74770 -20.74765 -20.73547 -20.73546  -1.74147
 Alpha  occ. eigenvalues --   -1.72359  -1.22670  -1.08029  -0.85552  -0.84934
 Alpha  occ. eigenvalues --   -0.82915  -0.76257  -0.71946  -0.65319  -0.53983
 Alpha  occ. eigenvalues --   -0.47646  -0.34888
 Alpha virt. eigenvalues --   -0.04611   0.45552   0.48809   0.65276   0.68023
 Alpha virt. eigenvalues --    0.69895   0.70931   0.72747   0.76055   0.77479
 Alpha virt. eigenvalues --    0.81525   0.84897   0.85868   0.97045   1.00042

 Mulliken charges and spin densities:
               1          2
     1  O   -0.032931   0.679899
     2  O    0.032931   0.320101
     3  O    0.032931   0.320101
     4  O   -0.032931   0.679899
 Sum of Mulliken charges =  -0.00000   2.00000

 Dipole moment (field-independent basis, Debye):
    X=              0.0000    Y=             -0.0000    Z=             -0.0000  Tot=              0.0000
 Quadrupole moment (field-independent basis, Debye-Ang):
   XX=            -20.1521   YY=            -19.5540   ZZ=            -21.2534
   XY=              0.0000   XZ=              0.0000   YZ=              0.0000

 PMP2-0=-300.1039877\MP4SDQ=-300.0684745\CCSD=-300.0623007\CCSD(T)=-300
 Normal termination of Gaussian 16 at Tue Feb 13 13:18:17 2024.
