 Gaussian 16, Revision A.03,
 Gaussian 16:  ES64L-G16RevA.03 25-Dec-2016

 -----------------------------------------------
 #p ROCCSD(T,MaxCyc=200)/cc-pVTZ SCF(MaxCyc=200)
 -----------------------------------------------

 -------
 O2_O2_3
 -------
 Symbolic Z-matrix:
 Charge =  0 Multiplicity = 3

                         Standard orientation:
 ---------------------------------------------------------------------
 Center     Atomic      Atomic             Coordinates (Angstroms)
 Number     Number       Type             X           Y           Z
 ---------------------------------------------------------------------
      1          8           0        0.000000    0.000000    1.680000
      2          8           0        0.000000    0.000000    0.520000
      3          8           0        0.000000    0.000000   -0.520000
      4          8           0        0.000000    0.000000   -1.680000
 ---------------------------------------------------------------------

 SCF Done:  E(ROHF) =  -298.710081107     A.U. after   12 cycles
 E2 =    -0.9264574035D+00 EUMP2 =    -0.29963653851048D+03
 CCSD(T)
 CCSD(T)= -0.29966585098D+03

 The electronic state is 3-SGG.
 Alpha  occ. eigenvalues --  -20.87300 -20.87170 -20.64073 -20.64073  -2.02976
 Alpha  occ. eigenvalues --   -1.70480  -1.53844  -1.08066  -1.08066  -0.95495
 Alpha  occ. eigenvalues --   -0.86040  -0.77415  -0.77415  -0.54183  -0.54183
 Alpha  occ. eigenvalues --   -0.38058  -0.38058
 Alpha virt. eigenvalues --    0.16187   0.42784   0.51338   0.55382   0.59828
 Alpha virt. eigenvalues --    0.59828   0.66790   0.74713   0.74713   0.84077
 Alpha virt. eigenvalues --    0.84077   0.84305   0.97560   0.97560   1.12987

 Mulliken charges and spin densities:
               1          2
     1  O   -0.317254   0.292475
     2  O    0.317254   0.707525
     3  O    0.317254   0.707525
     4  O   -0.317254   0.292475
 Sum of Mulliken charges =   0.00000   2.00000

 Dipole moment (field-independent basis, Debye):
    X=             -0.0000    Y=             -0.0000    Z=              0.0000  Tot=              0.0000
 Quadrupole moment (field-independent basis, Debye-Ang):
   XX=            -19.5190   YY=            -19.5190   ZZ=            -28.8936
   XY=              0.0000   XZ=              0.0000   YZ=              0.0000

 Normal termination of Gaussian 16 at Tue Feb 13 11:56:09 2024.
