 Gaussian 16, Revision A.03,
 Gaussian 16:  ES64L-G16RevA.03 25-Dec-2016

 -----------------------------------------------
 #p ROCCSD(T,MaxCyc=200)/cc-pVTZ SCF(MaxCyc=200)
 -----------------------------------------------

 ---------
 O2_O2_137
 ---------
 Symbolic Z-matrix:
 Charge =  0 Multiplicity = 3

                         Standard orientation:
 ---------------------------------------------------------------------
 Center     Atomic      Atomic             Coordinates (Angstroms)
 Number     Number       Type             X           Y           Z
 ---------------------------------------------------------------------
      1          8           0       -0.870000   -1.690000    0.000000
      2          8           0        0.290000   -1.690000    0.000000
      3          8           0        0.290000    1.110000    0.000000
      4          8           0        0.290000    2.270000    0.000000
 ---------------------------------------------------------------------

 SCF Done:  E(ROHF) =  -299.083862279     A.U. after   21 cycles
 E2 =    -0.1133845437D+01 EUMP2 =    -0.30021770771570D+03
 CCSD(T)
 CCSD(T)= -0.30023840529D+03

 The electronic state is 3-A'.
 Alpha  occ. eigenvalues --  -20.75956 -20.75851 -20.75504 -20.75008  -1.73699
 Alpha  occ. eigenvalues --   -1.73263  -1.14105  -1.13611  -0.84617  -0.84153
 Alpha  occ. eigenvalues --   -0.78355  -0.77675  -0.74161  -0.73871  -0.51551
 Alpha  occ. eigenvalues --   -0.51032  -0.29448
 Alpha virt. eigenvalues --   -0.11955   0.40837   0.43237   0.64091   0.64548
 Alpha virt. eigenvalues --    0.68322   0.69470   0.72096   0.75741   0.76612
 Alpha virt. eigenvalues --    0.78388   0.78551   0.80050   0.82494   0.86878

 Mulliken charges and spin densities:
               1          2
     1  O   -0.003954   0.487154
     2  O    0.016207   0.512924
     3  O   -0.018465   0.417230
     4  O    0.006212   0.582692
 Sum of Mulliken charges =  -0.00000   2.00000

 Dipole moment (field-independent basis, Debye):
    X=              0.0101    Y=             -0.0944    Z=              0.0000  Tot=              0.0949
 Quadrupole moment (field-independent basis, Debye-Ang):
   XX=            -20.6688   YY=            -20.1432   ZZ=            -19.6938
   XY=              0.0665   XZ=              0.0000   YZ=              0.0000

 Normal termination of Gaussian 16 at Tue Feb 13 16:28:32 2024.
