 Gaussian 16, Revision A.03,
 Gaussian 16:  ES64L-G16RevA.03 25-Dec-2016

 -----------------------------------------------
 #p ROCCSD(T,MaxCyc=200)/cc-pVTZ SCF(MaxCyc=200)
 -----------------------------------------------

 --------
 O2_O2_12
 --------
 Symbolic Z-matrix:
 Charge =  0 Multiplicity = 3

                         Standard orientation:
 ---------------------------------------------------------------------
 Center     Atomic      Atomic             Coordinates (Angstroms)
 Number     Number       Type             X           Y           Z
 ---------------------------------------------------------------------
      1          8           0        0.000000    0.000000    1.740000
      2          8           0        0.000000    0.000000    0.580000
      3          8           0        0.000000    0.000000   -0.580000
      4          8           0        0.000000    0.000000   -1.740000
 ---------------------------------------------------------------------

 SCF Done:  E(ROHF) =  -298.715385914     A.U. after   15 cycles
 E2 =    -0.1081902793D+01 EUMP2 =    -0.29979728870732D+03
 CCSD(T)
 CCSD(T)= -0.29977726685D+03

 Unable to determine electronic state:  an orbital has unidentified symmetry.
 Alpha  occ. eigenvalues --  -20.88797 -20.88736 -20.65767 -20.65767  -1.93697
 Alpha  occ. eigenvalues --   -1.73261  -1.52867  -1.01835  -1.00025  -0.93463
 Alpha  occ. eigenvalues --   -0.88017  -0.80803  -0.70237  -0.54505  -0.42899
 Alpha  occ. eigenvalues --   -0.41875  -0.39799
 Alpha virt. eigenvalues --   -0.00392   0.40373   0.50541   0.57301   0.61457
 Alpha virt. eigenvalues --    0.62922   0.66028   0.73838   0.74918   0.82220
 Alpha virt. eigenvalues --    0.83198   0.84690   0.96847   0.99283   1.01960

 Mulliken charges and spin densities:
               1          2
     1  O   -0.258712   0.295556
     2  O    0.258712   0.704444
     3  O    0.258712   0.704444
     4  O   -0.258712   0.295556
 Sum of Mulliken charges =   0.00000   2.00000

 Dipole moment (field-independent basis, Debye):
    X=             -0.0000    Y=             -0.0000    Z=              0.0000  Tot=              0.0000
 Quadrupole moment (field-independent basis, Debye-Ang):
   XX=            -19.4009   YY=            -19.9616   ZZ=            -28.3698
   XY=              0.0000   XZ=              0.0000   YZ=              0.0000

 PMP2-0=-299.7972887\MP4SDQ=-299.7230732\CCSD=-299.7115905\CCSD(T)=-299
 Normal termination of Gaussian 16 at Tue Feb 13 12:10:14 2024.
