 Gaussian 16, Revision A.03,
 Gaussian 16:  ES64L-G16RevA.03 25-Dec-2016

 -----------------------------------------------
 #p ROCCSD(T,MaxCyc=200)/cc-pVTZ SCF(MaxCyc=200)
 -----------------------------------------------

 ---------
 O2_O2_203
 ---------
 Symbolic Z-matrix:
 Charge =  0 Multiplicity = 3

                         Standard orientation:
 ---------------------------------------------------------------------
 Center     Atomic      Atomic             Coordinates (Angstroms)
 Number     Number       Type             X           Y           Z
 ---------------------------------------------------------------------
      1          8           0       -0.870000   -2.130000    0.000000
      2          8           0        0.290000   -2.130000    0.000000
      3          8           0        0.290000    1.550000    0.000000
      4          8           0        0.290000    2.710000    0.000000
 ---------------------------------------------------------------------

 SCF Done:  E(ROHF) =  -299.252798614     A.U. after   34 cycles
 E2 =    -0.9209079702D+00 EUMP2 =    -0.30017370658426D+03
 CCSD(T)
 CCSD(T)= -0.30020056015D+03

 The electronic state is 3-A".
 Alpha  occ. eigenvalues --  -20.73985 -20.73908 -20.73009 -20.72893  -1.74480
 Alpha  occ. eigenvalues --   -1.69940  -1.17023  -1.08632  -0.83763  -0.83754
 Alpha  occ. eigenvalues --   -0.78716  -0.78106  -0.75250  -0.67469  -0.50958
 Alpha  occ. eigenvalues --   -0.50950  -0.44885
 Alpha virt. eigenvalues --    0.04886   0.40983   0.42319   0.64372   0.67863
 Alpha virt. eigenvalues --    0.70073   0.70622   0.72130   0.75096   0.77859
 Alpha virt. eigenvalues --    0.78581   0.79790   0.81504   0.84206   0.84755

 Mulliken charges and spin densities:
               1          2
     1  O    0.000459   1.000506
     2  O   -0.000177   0.999445
     3  O   -0.001251   0.000046
     4  O    0.000969   0.000004
 Sum of Mulliken charges =  -0.00000   2.00000

 Dipole moment (field-independent basis, Debye):
    X=             -0.0011    Y=              0.0047    Z=              0.0000  Tot=              0.0049
 Quadrupole moment (field-independent basis, Debye-Ang):
   XX=            -21.1112   YY=            -20.2883   ZZ=            -18.8839
   XY=              0.0060   XZ=              0.0000   YZ=              0.0000

 CCSD(T)=-300.2005602\RMSD=4.692e-09\PG=CS [SG(O4)]\\@
 Normal termination of Gaussian 16 at Tue Feb 13 17:48:47 2024.
