 Gaussian 16, Revision A.03,
 Gaussian 16:  ES64L-G16RevA.03 25-Dec-2016

 -----------------------------------------------
 #p ROCCSD(T,MaxCyc=200)/cc-pVTZ SCF(MaxCyc=200)
 -----------------------------------------------

 -------
 O2_O2_4
 -------
 Symbolic Z-matrix:
 Charge =  0 Multiplicity = 3

                         Standard orientation:
 ---------------------------------------------------------------------
 Center     Atomic      Atomic             Coordinates (Angstroms)
 Number     Number       Type             X           Y           Z
 ---------------------------------------------------------------------
      1          8           0        0.615183   -1.425183    0.000000
      2          8           0       -0.205061   -0.604939   -0.000000
      3          8           0       -0.205061    0.435061   -0.000000
      4          8           0       -0.205061    1.595061   -0.000000
 ---------------------------------------------------------------------

 SCF Done:  E(ROHF) =  -298.814172977     A.U. after   20 cycles
 E2 =    -0.9089067638D+00 EUMP2 =    -0.29972307974081D+03
 CCSD(T)
 CCSD(T)= -0.29976056601D+03

 The electronic state is 3-A".
 Alpha  occ. eigenvalues --  -20.84549 -20.81155 -20.73674 -20.59636  -2.01532
 Alpha  occ. eigenvalues --   -1.70857  -1.51400  -1.05213  -1.04613  -0.97853
 Alpha  occ. eigenvalues --   -0.87926  -0.77034  -0.75656  -0.55236  -0.53601
 Alpha  occ. eigenvalues --   -0.45333  -0.37625
 Alpha virt. eigenvalues --    0.23943   0.47013   0.52837   0.60774   0.61270
 Alpha virt. eigenvalues --    0.63303   0.66989   0.74120   0.76367   0.80363
 Alpha virt. eigenvalues --    0.83739   0.84125   0.90163   0.90550   0.96749

 Mulliken charges and spin densities:
               1          2
     1  O   -0.391197   0.353698
     2  O    0.261040   0.488238
     3  O    0.232935   0.499690
     4  O   -0.102778   0.658374
 Sum of Mulliken charges =  -0.00000   2.00000

 Dipole moment (field-independent basis, Debye):
    X=             -1.1738    Y=              1.6676    Z=             -0.0000  Tot=              2.0393
 Quadrupole moment (field-independent basis, Debye-Ang):
   XX=            -20.4297   YY=            -25.3003   ZZ=            -19.5151
   XY=              1.7783   XZ=             -0.0000   YZ=              0.0000

 SD=-299.7224638\CCSD(T)=-299.760566\RMSD=8.328e-09\PG=CS [SG(O4)]\\@
 Normal termination of Gaussian 16 at Tue Feb 13 11:57:57 2024.
