 Gaussian 16, Revision A.03,
 Gaussian 16:  ES64L-G16RevA.03 25-Dec-2016

 -----------------------------------------------
 #p ROCCSD(T,MaxCyc=200)/cc-pVTZ SCF(MaxCyc=200)
 -----------------------------------------------

 ---------
 O2_O2_119
 ---------
 Symbolic Z-matrix:
 Charge =  0 Multiplicity = 3

                         Standard orientation:
 ---------------------------------------------------------------------
 Center     Atomic      Atomic             Coordinates (Angstroms)
 Number     Number       Type             X           Y           Z
 ---------------------------------------------------------------------
      1          8           0       -0.870000   -1.570000    0.000000
      2          8           0        0.290000   -1.570000    0.000000
      3          8           0        0.290000    0.990000    0.000000
      4          8           0        0.290000    2.150000    0.000000
 ---------------------------------------------------------------------

 SCF Done:  E(ROHF) =  -299.093986980     A.U. after   20 cycles
 E2 =    -0.1110858736D+01 EUMP2 =    -0.30020484571521D+03
 CCSD(T)
 CCSD(T)= -0.30023213195D+03

 The electronic state is 3-A'.
 Alpha  occ. eigenvalues --  -20.76119 -20.75991 -20.75494 -20.74863  -1.73837
 Alpha  occ. eigenvalues --   -1.73205  -1.14313  -1.13521  -0.84775  -0.84076
 Alpha  occ. eigenvalues --   -0.78853  -0.77802  -0.74152  -0.73294  -0.51688
 Alpha  occ. eigenvalues --   -0.50949  -0.30401
 Alpha virt. eigenvalues --   -0.10918   0.41209   0.44365   0.63671   0.66050
 Alpha virt. eigenvalues --    0.68656   0.69835   0.71956   0.75014   0.76127
 Alpha virt. eigenvalues --    0.77733   0.78510   0.81476   0.83600   0.86861

 Mulliken charges and spin densities:
               1          2
     1  O   -0.005894   0.478046
     2  O    0.023013   0.522116
     3  O   -0.020290   0.400705
     4  O    0.003172   0.599133
 Sum of Mulliken charges =   0.00000   2.00000

 Dipole moment (field-independent basis, Debye):
    X=              0.0259    Y=             -0.1192    Z=              0.0000  Tot=              0.1220
 Quadrupole moment (field-independent basis, Debye-Ang):
   XX=            -20.6788   YY=            -20.1281   ZZ=            -19.6921
   XY=              0.0929   XZ=              0.0000   YZ=              0.0000

 Normal termination of Gaussian 16 at Tue Feb 13 15:46:41 2024.
