 Gaussian 16, Revision A.03,
 Gaussian 16:  ES64L-G16RevA.03 25-Dec-2016

 -----------------------------------------------
 #p ROCCSD(T,MaxCyc=200)/cc-pVTZ SCF(MaxCyc=200)
 -----------------------------------------------

 ---------
 O2_O2_112
 ---------
 Symbolic Z-matrix:
 Charge =  0 Multiplicity = 3

                         Standard orientation:
 ---------------------------------------------------------------------
 Center     Atomic      Atomic             Coordinates (Angstroms)
 Number     Number       Type             X           Y           Z
 ---------------------------------------------------------------------
      1          8           0        0.615183   -2.145183    0.000000
      2          8           0       -0.205061   -1.324939    0.000000
      3          8           0       -0.205061    1.155061   -0.000000
      4          8           0       -0.205061    2.315061   -0.000000
 ---------------------------------------------------------------------

 SCF Done:  E(ROHF) =  -299.082712634     A.U. after   20 cycles
 E2 =    -0.1130814261D+01 EUMP2 =    -0.30021352689451D+03
 CCSD(T)
 CCSD(T)= -0.30023524938D+03

 The electronic state is 3-A'.
 Alpha  occ. eigenvalues --  -20.75884 -20.75533 -20.75112 -20.74969  -1.73513
 Alpha  occ. eigenvalues --   -1.73247  -1.14787  -1.12762  -0.84583  -0.84132
 Alpha  occ. eigenvalues --   -0.79058  -0.76062  -0.74760  -0.73596  -0.51415
 Alpha  occ. eigenvalues --   -0.50814  -0.29436
 Alpha virt. eigenvalues --   -0.11677   0.41462   0.46743   0.64277   0.66863
 Alpha virt. eigenvalues --    0.68271   0.70862   0.71880   0.74623   0.77631
 Alpha virt. eigenvalues --    0.78961   0.79794   0.84290   0.86274   0.88445

 Mulliken charges and spin densities:
               1          2
     1  O    0.006944   0.567044
     2  O   -0.001368   0.433192
     3  O   -0.004119   0.416070
     4  O   -0.001457   0.583694
 Sum of Mulliken charges =  -0.00000   2.00000

 Dipole moment (field-independent basis, Debye):
    X=              0.0331    Y=             -0.0363    Z=             -0.0000  Tot=              0.0491
 Quadrupole moment (field-independent basis, Debye-Ang):
   XX=            -20.0409   YY=            -20.3495   ZZ=            -20.1644
   XY=              0.2985   XZ=              0.0000   YZ=              0.0000

 5\CCSD=-300.1139946\CCSD(T)=-300.2352494\RMSD=3.591e-09\PG=CS [SG(O4)]
 Normal termination of Gaussian 16 at Tue Feb 13 15:30:06 2024.
