 Gaussian 16, Revision A.03,
 Gaussian 16:  ES64L-G16RevA.03 25-Dec-2016

 -----------------------------------------------
 #p ROCCSD(T,MaxCyc=200)/cc-pVTZ SCF(MaxCyc=200)
 -----------------------------------------------

 -------
 O2_O2_6
 -------
 Symbolic Z-matrix:
 Charge =  0 Multiplicity = 3

                         Standard orientation:
 ---------------------------------------------------------------------
 Center     Atomic      Atomic             Coordinates (Angstroms)
 Number     Number       Type             X           Y           Z
 ---------------------------------------------------------------------
      1          8           0        0.000000    0.000000    1.700000
      2          8           0        0.000000    0.000000    0.540000
      3          8           0        0.000000    0.000000   -0.540000
      4          8           0        0.000000    0.000000   -1.700000
 ---------------------------------------------------------------------

 SCF Done:  E(ROHF) =  -298.736073257     A.U. after   11 cycles
 E2 =    -0.9388495936D+00 EUMP2 =    -0.29967492285088D+03
 CCSD(T)
 CCSD(T)= -0.29970144344D+03

 The electronic state is 3-SGG.
 Alpha  occ. eigenvalues --  -20.87216 -20.87121 -20.64638 -20.64638  -1.98538
 Alpha  occ. eigenvalues --   -1.70698  -1.52176  -1.05361  -1.05361  -0.96185
 Alpha  occ. eigenvalues --   -0.85711  -0.78106  -0.78106  -0.54211  -0.54211
 Alpha  occ. eigenvalues --   -0.39193  -0.39193
 Alpha virt. eigenvalues --    0.12604   0.43413   0.51719   0.56322   0.60416
 Alpha virt. eigenvalues --    0.60416   0.66767   0.74491   0.74491   0.83853
 Alpha virt. eigenvalues --    0.83853   0.84269   0.97380   0.97380   1.12023

 Mulliken charges and spin densities:
               1          2
     1  O   -0.306042   0.308691
     2  O    0.306042   0.691309
     3  O    0.306042   0.691309
     4  O   -0.306042   0.308691
 Sum of Mulliken charges =  -0.00000   2.00000

 Dipole moment (field-independent basis, Debye):
    X=             -0.0000    Y=              0.0000    Z=             -0.0000  Tot=              0.0000
 Quadrupole moment (field-independent basis, Debye-Ang):
   XX=            -19.6002   YY=            -19.6002   ZZ=            -28.5865
   XY=              0.0000   XZ=              0.0000   YZ=              0.0000

 Normal termination of Gaussian 16 at Tue Feb 13 11:59:19 2024.
