 Gaussian 16, Revision A.03,
 Gaussian 16:  ES64L-G16RevA.03 25-Dec-2016

 -----------------------------------------------
 #p ROCCSD(T,MaxCyc=200)/cc-pVTZ SCF(MaxCyc=200)
 -----------------------------------------------

 ---------
 O2_O2_188
 ---------
 Symbolic Z-matrix:
 Charge =  0 Multiplicity = 3

                         Standard orientation:
 ---------------------------------------------------------------------
 Center     Atomic      Atomic             Coordinates (Angstroms)
 Number     Number       Type             X           Y           Z
 ---------------------------------------------------------------------
      1          8           0       -0.870000   -2.030000    0.000000
      2          8           0        0.290000   -2.030000    0.000000
      3          8           0        0.290000    1.450000    0.000000
      4          8           0        0.290000    2.610000    0.000000
 ---------------------------------------------------------------------

 SCF Done:  E(ROHF) =  -299.252870600     A.U. after   26 cycles
 E2 =    -0.9210347521D+00 EUMP2 =    -0.30017390535226D+03
 CCSD(T)
 CCSD(T)= -0.30020072658D+03

 The electronic state is 3-A".
 Alpha  occ. eigenvalues --  -20.74337 -20.74198 -20.72884 -20.72768  -1.74793
 Alpha  occ. eigenvalues --   -1.69809  -1.17360  -1.08499  -0.84073  -0.84073
 Alpha  occ. eigenvalues --   -0.78589  -0.78464  -0.75120  -0.67318  -0.51276
 Alpha  occ. eigenvalues --   -0.51276  -0.44759
 Alpha virt. eigenvalues --    0.05009   0.39542   0.43481   0.63816   0.67488
 Alpha virt. eigenvalues --    0.67538   0.70500   0.72540   0.75320   0.77536
 Alpha virt. eigenvalues --    0.79656   0.80297   0.81092   0.82443   0.86684

 Mulliken charges and spin densities:
               1          2
     1  O   -0.000344   0.000021
     2  O    0.000926   0.000029
     3  O   -0.005487   0.995232
     4  O    0.004906   1.004718
 Sum of Mulliken charges =  -0.00000   2.00000

 Dipole moment (field-independent basis, Debye):
    X=              0.0050    Y=              0.0312    Z=              0.0000  Tot=              0.0316
 Quadrupole moment (field-independent basis, Debye-Ang):
   XX=            -20.3054   YY=            -19.3542   ZZ=            -20.5121
   XY=              0.0092   XZ=              0.0000   YZ=              0.0000

 CCSD(T)=-300.2007266\RMSD=9.846e-09\PG=CS [SG(O4)]\\@
 Normal termination of Gaussian 16 at Tue Feb 13 17:30:57 2024.
