 Gaussian 16, Revision A.03,
 Gaussian 16:  ES64L-G16RevA.03 25-Dec-2016

 -----------------------------------------------
 #p ROCCSD(T,MaxCyc=200)/cc-pVTZ SCF(MaxCyc=200)
 -----------------------------------------------

 --------
 O2_O2_15
 --------
 Symbolic Z-matrix:
 Charge =  0 Multiplicity = 3

                         Standard orientation:
 ---------------------------------------------------------------------
 Center     Atomic      Atomic             Coordinates (Angstroms)
 Number     Number       Type             X           Y           Z
 ---------------------------------------------------------------------
      1          8           0        0.000000    0.000000    1.760000
      2          8           0        0.000000    0.000000    0.600000
      3          8           0        0.000000    0.000000   -0.600000
      4          8           0        0.000000    0.000000   -1.760000
 ---------------------------------------------------------------------

 SCF Done:  E(ROHF) =  -298.744475109     A.U. after   13 cycles
 E2 =    -0.1089392133D+01 EUMP2 =    -0.29983386724289D+03
 CCSD(T)
 CCSD(T)= -0.29981134844D+03

 Unable to determine electronic state:  an orbital has unidentified symmetry.
 Alpha  occ. eigenvalues --  -20.88114 -20.88069 -20.66455 -20.66455  -1.90551
 Alpha  occ. eigenvalues --   -1.73344  -1.50991  -1.00850  -0.99651  -0.91378
 Alpha  occ. eigenvalues --   -0.87994  -0.81161  -0.70654  -0.54440  -0.44055
 Alpha  occ. eigenvalues --   -0.43518  -0.41368
 Alpha virt. eigenvalues --   -0.01381   0.41529   0.50462   0.58370   0.61912
 Alpha virt. eigenvalues --    0.63451   0.66663   0.73645   0.74740   0.82344
 Alpha virt. eigenvalues --    0.82921   0.84532   0.96793   0.98309   0.99181

 Mulliken charges and spin densities:
               1          2
     1  O   -0.252903   0.292271
     2  O    0.252903   0.707729
     3  O    0.252903   0.707729
     4  O   -0.252903   0.292271
 Sum of Mulliken charges =  -0.00000   2.00000

 Dipole moment (field-independent basis, Debye):
    X=             -0.0000    Y=             -0.0000    Z=             -0.0000  Tot=              0.0000
 Quadrupole moment (field-independent basis, Debye-Ang):
   XX=            -20.0238   YY=            -19.4675   ZZ=            -27.8977
   XY=              0.0000   XZ=              0.0000   YZ=              0.0000

 MP2-0=-299.8338672\MP4SDQ=-299.7542385\CCSD=-299.7440285\CCSD(T)=-299.
 Normal termination of Gaussian 16 at Tue Feb 13 12:15:25 2024.
