 Gaussian 16, Revision A.03,
 Gaussian 16:  ES64L-G16RevA.03 25-Dec-2016

 -----------------------------------------------
 #p ROCCSD(T,MaxCyc=200)/cc-pVTZ SCF(MaxCyc=200)
 -----------------------------------------------

 ---------
 O2_O2_184
 ---------
 Symbolic Z-matrix:
 Charge =  0 Multiplicity = 3

                         Standard orientation:
 ---------------------------------------------------------------------
 Center     Atomic      Atomic             Coordinates (Angstroms)
 Number     Number       Type             X           Y           Z
 ---------------------------------------------------------------------
      1          8           0        0.615183   -2.625183    0.000000
      2          8           0       -0.205061   -1.804939    0.000000
      3          8           0       -0.205061    1.635061   -0.000000
      4          8           0       -0.205061    2.795061   -0.000000
 ---------------------------------------------------------------------

 SCF Done:  E(ROHF) =  -299.252737306     A.U. after   25 cycles
 E2 =    -0.9210144437D+00 EUMP2 =    -0.30017375174961D+03
 CCSD(T)
 CCSD(T)= -0.30020058273D+03

 The electronic state is 3-A".
 Alpha  occ. eigenvalues --  -20.73994 -20.73915 -20.72926 -20.72810  -1.74490
 Alpha  occ. eigenvalues --   -1.69862  -1.17032  -1.08545  -0.83772  -0.83768
 Alpha  occ. eigenvalues --   -0.78637  -0.78121  -0.75150  -0.67390  -0.50966
 Alpha  occ. eigenvalues --   -0.50956  -0.44804
 Alpha virt. eigenvalues --    0.04968   0.37846   0.45809   0.64924   0.67813
 Alpha virt. eigenvalues --    0.68980   0.70627   0.70708   0.74762   0.78134
 Alpha virt. eigenvalues --    0.78434   0.79368   0.82974   0.85442   0.86240

 Mulliken charges and spin densities:
               1          2
     1  O   -0.000069   0.999216
     2  O    0.000314   1.000590
     3  O   -0.000796   0.000179
     4  O    0.000551   0.000015
 Sum of Mulliken charges =  -0.00000   2.00000

 Dipole moment (field-independent basis, Debye):
    X=             -0.0040    Y=             -0.0021    Z=             -0.0000  Tot=              0.0045
 Quadrupole moment (field-independent basis, Debye-Ang):
   XX=            -20.8142   YY=            -20.6402   ZZ=            -18.8843
   XY=              0.3057   XZ=             -0.0000   YZ=              0.0000

 5\CCSD=-300.1624764\CCSD(T)=-300.2005827\RMSD=2.309e-09\PG=CS [SG(O4)]
 Normal termination of Gaussian 16 at Tue Feb 13 17:25:34 2024.
