 Gaussian 16, Revision A.03,
 Gaussian 16:  ES64L-G16RevA.03 25-Dec-2016

 -----------------------------------------------
 #p ROCCSD(T,MaxCyc=200)/cc-pVTZ SCF(MaxCyc=200)
 -----------------------------------------------

 ---------
 O2_O2_163
 ---------
 Symbolic Z-matrix:
 Charge =  0 Multiplicity = 3

                         Standard orientation:
 ---------------------------------------------------------------------
 Center     Atomic      Atomic             Coordinates (Angstroms)
 Number     Number       Type             X           Y           Z
 ---------------------------------------------------------------------
      1          8           0        0.615183   -2.485183   -0.000000
      2          8           0       -0.205061   -1.664939    0.000000
      3          8           0       -0.205061    1.495061    0.000000
      4          8           0       -0.205061    2.655061    0.000000
 ---------------------------------------------------------------------

 SCF Done:  E(ROHF) =  -299.252574834     A.U. after   26 cycles
 E2 =    -0.9212665532D+00 EUMP2 =    -0.30017384138773D+03
 CCSD(T)
 CCSD(T)= -0.30020064228D+03

 The electronic state is 3-A".
 Alpha  occ. eigenvalues --  -20.73969 -20.73888 -20.72913 -20.72797  -1.74469
 Alpha  occ. eigenvalues --   -1.69853  -1.17017  -1.08539  -0.83755  -0.83751
 Alpha  occ. eigenvalues --   -0.78628  -0.78127  -0.75112  -0.67382  -0.50944
 Alpha  occ. eigenvalues --   -0.50933  -0.44793
 Alpha virt. eigenvalues --    0.04974   0.38172   0.46227   0.64462   0.67460
 Alpha virt. eigenvalues --    0.68407   0.70734   0.71062   0.75011   0.77960
 Alpha virt. eigenvalues --    0.78818   0.78893   0.83826   0.86110   0.86432

 Mulliken charges and spin densities:
               1          2
     1  O   -0.000375   0.998796
     2  O    0.000577   1.000990
     3  O   -0.000639   0.000163
     4  O    0.000437   0.000052
 Sum of Mulliken charges =  -0.00000   2.00000

 Dipole moment (field-independent basis, Debye):
    X=             -0.0060    Y=              0.0004    Z=              0.0000  Tot=              0.0060
 Quadrupole moment (field-independent basis, Debye-Ang):
   XX=            -20.8153   YY=            -20.6620   ZZ=            -18.8845
   XY=              0.3087   XZ=              0.0000   YZ=             -0.0000

 1\CCSD=-300.1625053\CCSD(T)=-300.2006423\RMSD=9.072e-09\PG=CS [SG(O4)]
 Normal termination of Gaussian 16 at Tue Feb 13 16:59:43 2024.
