 Gaussian 16, Revision A.03,
 Gaussian 16:  ES64L-G16RevA.03 25-Dec-2016

 -----------------------------------------------
 #p ROCCSD(T,MaxCyc=200)/cc-pVTZ SCF(MaxCyc=200)
 -----------------------------------------------

 ---------
 O2_O2_262
 ---------
 Symbolic Z-matrix:
 Charge =  0 Multiplicity = 3

                         Standard orientation:
 ---------------------------------------------------------------------
 Center     Atomic      Atomic             Coordinates (Angstroms)
 Number     Number       Type             X           Y           Z
 ---------------------------------------------------------------------
      1          8           0        0.615183   -3.145183    0.000000
      2          8           0       -0.205061   -2.324939    0.000000
      3          8           0       -0.205061    2.155061    0.000000
      4          8           0       -0.205061    3.315061    0.000000
 ---------------------------------------------------------------------

 SCF Done:  E(ROHF) =  -299.252738429     A.U. after   25 cycles
 E2 =    -0.9206595351D+00 EUMP2 =    -0.30017339796447D+03
 CCSD(T)
 CCSD(T)= -0.30020028420D+03

 The electronic state is 3-A".
 Alpha  occ. eigenvalues --  -20.74015 -20.73938 -20.72944 -20.72828  -1.74514
 Alpha  occ. eigenvalues --   -1.69879  -1.17057  -1.08565  -0.83794  -0.83792
 Alpha  occ. eigenvalues --   -0.78655  -0.78138  -0.75185  -0.67408  -0.50989
 Alpha  occ. eigenvalues --   -0.50987  -0.44824
 Alpha virt. eigenvalues --    0.04952   0.40845   0.43746   0.67926   0.68009
 Alpha virt. eigenvalues --    0.70398   0.70561   0.71337   0.73099   0.77891
 Alpha virt. eigenvalues --    0.79183   0.79788   0.81134   0.82213   0.84718

 Mulliken charges and spin densities:
               1          2
     1  O   -0.000349   0.999594
     2  O    0.000368   1.000393
     3  O    0.000138   0.000013
     4  O   -0.000157  -0.000000
 Sum of Mulliken charges =  -0.00000   2.00000

 Dipole moment (field-independent basis, Debye):
    X=             -0.0019    Y=              0.0005    Z=              0.0000  Tot=              0.0020
 Quadrupole moment (field-independent basis, Debye-Ang):
   XX=            -20.8139   YY=            -20.6264   ZZ=            -18.8837
   XY=              0.3030   XZ=             -0.0000   YZ=              0.0000

 CSD=-300.1622192\CCSD(T)=-300.2002842\RMSD=4.183e-09\PG=CS [SG(O4)]\\@
 Normal termination of Gaussian 16 at Tue Feb 13 18:57:56 2024.
