 Gaussian 16, Revision A.03,
 Gaussian 16:  ES64L-G16RevA.03 25-Dec-2016

 -----------------------------------------------
 #p ROCCSD(T,MaxCyc=200)/cc-pVTZ SCF(MaxCyc=200)
 -----------------------------------------------

 --------
 O2_O2_90
 --------
 Symbolic Z-matrix:
 Charge =  0 Multiplicity = 3

                         Standard orientation:
 ---------------------------------------------------------------------
 Center     Atomic      Atomic             Coordinates (Angstroms)
 Number     Number       Type             X           Y           Z
 ---------------------------------------------------------------------
      1          8           0        0.000000    0.000000    2.260000
      2          8           0        0.000000    0.000000    1.100000
      3          8           0        0.000000    0.000000   -1.100000
      4          8           0        0.000000    0.000000   -2.260000
 ---------------------------------------------------------------------

 SCF Done:  E(ROHF) =  -299.067335278     A.U. after   13 cycles
 E2 =    -0.1102373768D+01 EUMP2 =    -0.30016970904540D+03
 CCSD(T)
 CCSD(T)= -0.30017690980D+03

 Unable to determine electronic state:  an orbital has unidentified symmetry.
 Alpha  occ. eigenvalues --  -20.76991 -20.76989 -20.74260 -20.74260  -1.73775
 Alpha  occ. eigenvalues --   -1.73354  -1.16287  -1.11897  -0.82819  -0.81970
 Alpha  occ. eigenvalues --   -0.80882  -0.77134  -0.75280  -0.74481  -0.49483
 Alpha  occ. eigenvalues --   -0.47658  -0.32340
 Alpha virt. eigenvalues --   -0.12951   0.43391   0.48681   0.64535   0.65065
 Alpha virt. eigenvalues --    0.71015   0.71111   0.71327   0.76207   0.76524
 Alpha virt. eigenvalues --    0.77562   0.84653   0.85373   0.87196   0.93012

 Mulliken charges and spin densities:
               1          2
     1  O   -0.046195   0.466831
     2  O    0.046195   0.533169
     3  O    0.046195   0.533169
     4  O   -0.046195   0.466831
 Sum of Mulliken charges =  -0.00000   2.00000

 Dipole moment (field-independent basis, Debye):
    X=             -0.0000    Y=             -0.0000    Z=             -0.0000  Tot=              0.0000
 Quadrupole moment (field-independent basis, Debye-Ang):
   XX=            -20.7572   YY=            -19.1556   ZZ=            -21.7213
   XY=              0.0000   XZ=              0.0000   YZ=              0.0000

 2-0=-300.169709\MP4SDQ=-300.0816275\CCSD=-300.0792511\CCSD(T)=-300.176
 Normal termination of Gaussian 16 at Tue Feb 13 14:38:42 2024.
