 Gaussian 16, Revision A.03,
 Gaussian 16:  ES64L-G16RevA.03 25-Dec-2016

 -----------------------------------------------
 #p ROCCSD(T,MaxCyc=200)/cc-pVTZ SCF(MaxCyc=200)
 -----------------------------------------------

 --------
 O2_O2_43
 --------
 Symbolic Z-matrix:
 Charge =  0 Multiplicity = 3

                         Standard orientation:
 ---------------------------------------------------------------------
 Center     Atomic      Atomic             Coordinates (Angstroms)
 Number     Number       Type             X           Y           Z
 ---------------------------------------------------------------------
      1          8           0        0.615183   -1.685183    0.000000
      2          8           0       -0.205061   -0.864939    0.000000
      3          8           0       -0.205061    0.695062   -0.000000
      4          8           0       -0.205061    1.855060   -0.000000
 ---------------------------------------------------------------------

 SCF Done:  E(ROHF) =  -299.114487689     A.U. after   25 cycles
 E2 =    -0.9404025423D+00 EUMP2 =    -0.30005489023151D+03
 CCSD(T)
 CCSD(T)= -0.30008260261D+03

 The electronic state is 3-A".
 Alpha  occ. eigenvalues --  -20.75479 -20.74197 -20.72445 -20.67826  -1.76861
 Alpha  occ. eigenvalues --   -1.68642  -1.26758  -1.05478  -0.86517  -0.86069
 Alpha  occ. eigenvalues --   -0.84609  -0.77158  -0.70422  -0.59075  -0.53734
 Alpha  occ. eigenvalues --   -0.52227  -0.41912
 Alpha virt. eigenvalues --    0.08014   0.45754   0.49725   0.64609   0.65436
 Alpha virt. eigenvalues --    0.70062   0.72532   0.72957   0.75088   0.79458
 Alpha virt. eigenvalues --    0.80475   0.81698   0.85768   0.94000   0.97127

 Mulliken charges and spin densities:
               1          2
     1  O   -0.100487   0.010711
     2  O    0.049133   0.017816
     3  O    0.048025   0.924090
     4  O    0.003329   1.047382
 Sum of Mulliken charges =  -0.00000   2.00000

 Dipole moment (field-independent basis, Debye):
    X=             -0.3714    Y=              0.9620    Z=             -0.0000  Tot=              1.0312
 Quadrupole moment (field-independent basis, Debye-Ang):
   XX=            -19.9032   YY=            -21.4398   ZZ=            -20.3443
   XY=              1.1402   XZ=             -0.0000   YZ=              0.0000

 CSD=-300.0408225\CCSD(T)=-300.0826026\RMSD=8.231e-09\PG=CS [SG(O4)]\\@
 Normal termination of Gaussian 16 at Tue Feb 13 13:04:58 2024.
