 Gaussian 16, Revision A.03,
 Gaussian 16:  ES64L-G16RevA.03 25-Dec-2016

 -----------------------------------------------
 #p ROCCSD(T,MaxCyc=200)/cc-pVTZ SCF(MaxCyc=200)
 -----------------------------------------------

 ---------
 O2_O2_217
 ---------
 Symbolic Z-matrix:
 Charge =  0 Multiplicity = 3

                         Standard orientation:
 ---------------------------------------------------------------------
 Center     Atomic      Atomic             Coordinates (Angstroms)
 Number     Number       Type             X           Y           Z
 ---------------------------------------------------------------------
      1          8           0        0.615183   -2.845183    0.000000
      2          8           0       -0.205061   -2.024939   -0.000000
      3          8           0       -0.205061    1.855061   -0.000000
      4          8           0       -0.205061    3.015061   -0.000000
 ---------------------------------------------------------------------

 SCF Done:  E(ROHF) =  -299.252770395     A.U. after   29 cycles
 E2 =    -0.9207890949D+00 EUMP2 =    -0.30017355948950D+03
 CCSD(T)
 CCSD(T)= -0.30020042190D+03

 The electronic state is 3-A".
 Alpha  occ. eigenvalues --  -20.74008 -20.73931 -20.72936 -20.72820  -1.74505
 Alpha  occ. eigenvalues --   -1.69871  -1.17047  -1.08556  -0.83786  -0.83781
 Alpha  occ. eigenvalues --   -0.78647  -0.78128  -0.75173  -0.67400  -0.50981
 Alpha  occ. eigenvalues --   -0.50974  -0.44815
 Alpha virt. eigenvalues --    0.04960   0.38972   0.44957   0.66760   0.67986
 Alpha virt. eigenvalues --    0.69670   0.70480   0.70574   0.74176   0.77781
 Alpha virt. eigenvalues --    0.78744   0.79719   0.82353   0.84839   0.85098

 Mulliken charges and spin densities:
               1          2
     1  O   -0.000193   0.999506
     2  O    0.000328   1.000402
     3  O   -0.000182   0.000091
     4  O    0.000047   0.000000
 Sum of Mulliken charges =  -0.00000   2.00000

 Dipole moment (field-independent basis, Debye):
    X=             -0.0025    Y=             -0.0015    Z=              0.0000  Tot=              0.0030
 Quadrupole moment (field-independent basis, Debye-Ang):
   XX=            -20.8138   YY=            -20.6284   ZZ=            -18.8840
   XY=              0.3035   XZ=             -0.0000   YZ=              0.0000

 5\CCSD=-300.1623424\CCSD(T)=-300.2004219\RMSD=2.330e-09\PG=CS [SG(O4)]
 Normal termination of Gaussian 16 at Tue Feb 13 18:05:48 2024.
