 Gaussian 16, Revision A.03,
 Gaussian 16:  ES64L-G16RevA.03 25-Dec-2016

 -----------------------------------------------
 #p ROCCSD(T,MaxCyc=200)/cc-pVTZ SCF(MaxCyc=200)
 -----------------------------------------------

 --------
 O2_O2_38
 --------
 Symbolic Z-matrix:
 Charge =  0 Multiplicity = 3

                         Standard orientation:
 ---------------------------------------------------------------------
 Center     Atomic      Atomic             Coordinates (Angstroms)
 Number     Number       Type             X           Y           Z
 ---------------------------------------------------------------------
      1          8           0       -0.870000   -1.030000    0.000000
      2          8           0        0.290000   -1.030000    0.000000
      3          8           0        0.290000    0.450000    0.000000
      4          8           0        0.290000    1.610000    0.000000
 ---------------------------------------------------------------------

 SCF Done:  E(ROHF) =  -299.039485919     A.U. after   25 cycles
 E2 =    -0.9507015610D+00 EUMP2 =    -0.29999018747989D+03
 CCSD(T)
 CCSD(T)= -0.30001848939D+03

 The electronic state is 3-A".
 Alpha  occ. eigenvalues --  -20.77722 -20.76517 -20.75176 -20.62395  -1.80522
 Alpha  occ. eigenvalues --   -1.69654  -1.26756  -1.07358  -0.89506  -0.89128
 Alpha  occ. eigenvalues --   -0.86129  -0.77183  -0.72810  -0.55375  -0.54631
 Alpha  occ. eigenvalues --   -0.51277  -0.41508
 Alpha virt. eigenvalues --    0.07836   0.43678   0.45580   0.63331   0.64610
 Alpha virt. eigenvalues --    0.66954   0.71023   0.73415   0.73416   0.80992
 Alpha virt. eigenvalues --    0.83286   0.84290   0.85868   0.88154   0.99677

 Mulliken charges and spin densities:
               1          2
     1  O   -0.225852   0.003072
     2  O    0.115565   0.038252
     3  O    0.093335   0.909704
     4  O    0.016952   1.048973
 Sum of Mulliken charges =  -0.00000   2.00000

 Dipole moment (field-independent basis, Debye):
    X=              1.2739    Y=              1.1732    Z=              0.0000  Tot=              1.7318
 Quadrupole moment (field-independent basis, Debye-Ang):
   XX=            -21.0330   YY=            -20.2641   ZZ=            -20.2394
   XY=             -1.0387   XZ=              0.0000   YZ=              0.0000

 Normal termination of Gaussian 16 at Tue Feb 13 12:55:56 2024.
