 Gaussian 16, Revision A.03,
 Gaussian 16:  ES64L-G16RevA.03 25-Dec-2016

 -----------------------------------------------
 #p ROCCSD(T,MaxCyc=200)/cc-pVTZ SCF(MaxCyc=200)
 -----------------------------------------------

 --------
 O2_O2_84
 --------
 Symbolic Z-matrix:
 Charge =  0 Multiplicity = 3

                         Standard orientation:
 ---------------------------------------------------------------------
 Center     Atomic      Atomic             Coordinates (Angstroms)
 Number     Number       Type             X           Y           Z
 ---------------------------------------------------------------------
      1          8           0        0.000000    0.000000    2.220000
      2          8           0        0.000000    0.000000    1.060000
      3          8           0        0.000000    0.000000   -1.060000
      4          8           0        0.000000    0.000000   -2.220000
 ---------------------------------------------------------------------

 SCF Done:  E(ROHF) =  -299.095547721     A.U. after   16 cycles
 E2 =    -0.1089559796D+01 EUMP2 =    -0.30018510751723D+03
 CCSD(T)
 CCSD(T)= -0.30021736572D+03

 Unable to determine electronic state:  an orbital has unidentified symmetry.
 Alpha  occ. eigenvalues --  -20.75705 -20.75703 -20.74833 -20.74833  -1.73675
 Alpha  occ. eigenvalues --   -1.73183  -1.16511  -1.11459  -0.84759  -0.83907
 Alpha  occ. eigenvalues --   -0.81261  -0.75195  -0.73388  -0.73173  -0.52323
 Alpha  occ. eigenvalues --   -0.49939  -0.31137
 Alpha virt. eigenvalues --   -0.09509   0.43905   0.48525   0.64251   0.66920
 Alpha virt. eigenvalues --    0.69437   0.71656   0.72097   0.75050   0.76317
 Alpha virt. eigenvalues --    0.78781   0.84716   0.86137   0.89074   0.93213

 Mulliken charges and spin densities:
               1          2
     1  O   -0.015396   0.614182
     2  O    0.015396   0.385818
     3  O    0.015396   0.385818
     4  O   -0.015396   0.614182
 Sum of Mulliken charges =  -0.00000   2.00000

 Dipole moment (field-independent basis, Debye):
    X=             -0.0000    Y=             -0.0000    Z=              0.0000  Tot=              0.0000
 Quadrupole moment (field-independent basis, Debye-Ang):
   XX=            -19.6695   YY=            -20.2174   ZZ=            -20.5814
   XY=              0.0000   XZ=              0.0000   YZ=              0.0000

 PMP2-0=-300.1851075\MP4SDQ=-300.1221355\CCSD=-300.1126841\CCSD(T)=-300
 Normal termination of Gaussian 16 at Tue Feb 13 14:26:33 2024.
