 Gaussian 16, Revision A.03,
 Gaussian 16:  ES64L-G16RevA.03 25-Dec-2016

 -----------------------------------------------
 #p ROCCSD(T,MaxCyc=200)/cc-pVTZ SCF(MaxCyc=200)
 -----------------------------------------------

 ---------
 O2_O2_138
 ---------
 Symbolic Z-matrix:
 Charge =  0 Multiplicity = 3

                         Standard orientation:
 ---------------------------------------------------------------------
 Center     Atomic      Atomic             Coordinates (Angstroms)
 Number     Number       Type             X           Y           Z
 ---------------------------------------------------------------------
      1          8           0        0.000000    0.000000    2.580000
      2          8           0        0.000000    0.000000    1.420000
      3          8           0        0.000000    0.000000   -1.420000
      4          8           0        0.000000    0.000000   -2.580000
 ---------------------------------------------------------------------

 SCF Done:  E(ROHF) =  -299.045365633     A.U. after   15 cycles
 E2 =    -0.1157127265D+01 EUMP2 =    -0.30020249289742D+03
 CCSD(T)
 CCSD(T)= -0.30019295263D+03

 Unable to determine electronic state:  an orbital has unidentified symmetry.
 Alpha  occ. eigenvalues --  -20.76295 -20.76294 -20.74715 -20.74715  -1.73419
 Alpha  occ. eigenvalues --   -1.73347  -1.14236  -1.13270  -0.82317  -0.82144
 Alpha  occ. eigenvalues --   -0.78573  -0.76896  -0.76511  -0.75739  -0.48713
 Alpha  occ. eigenvalues --   -0.48311  -0.30046
 Alpha virt. eigenvalues --   -0.15446   0.38641   0.48377   0.65946   0.66405
 Alpha virt. eigenvalues --    0.66662   0.70165   0.70254   0.75673   0.76951
 Alpha virt. eigenvalues --    0.78034   0.79207   0.85810   0.86803   0.86852

 Mulliken charges and spin densities:
               1          2
     1  O   -0.018280   0.477984
     2  O    0.018280   0.522016
     3  O    0.018280   0.522016
     4  O   -0.018280   0.477984
 Sum of Mulliken charges =  -0.00000   2.00000

 Dipole moment (field-independent basis, Debye):
    X=             -0.0000    Y=              0.0000    Z=             -0.0000  Tot=              0.0000
 Quadrupole moment (field-independent basis, Debye-Ang):
   XX=            -19.1158   YY=            -20.7254   ZZ=            -21.5344
   XY=              0.0000   XZ=              0.0000   YZ=              0.0000

 MP2-0=-300.2024929\MP4SDQ=-300.0475491\CCSD=-300.0729779\CCSD(T)=-300.
 Normal termination of Gaussian 16 at Tue Feb 13 16:29:52 2024.
