 Gaussian 16, Revision A.03,
 Gaussian 16:  ES64L-G16RevA.03 25-Dec-2016

 -----------------------------------------------
 #p ROCCSD(T,MaxCyc=200)/cc-pVTZ SCF(MaxCyc=200)
 -----------------------------------------------

 --------
 O2_O2_73
 --------
 Symbolic Z-matrix:
 Charge =  0 Multiplicity = 3

                         Standard orientation:
 ---------------------------------------------------------------------
 Center     Atomic      Atomic             Coordinates (Angstroms)
 Number     Number       Type             X           Y           Z
 ---------------------------------------------------------------------
      1          8           0        0.615183   -1.885183    0.000000
      2          8           0       -0.205061   -1.064939   -0.000000
      3          8           0       -0.205061    0.895061   -0.000000
      4          8           0       -0.205061    2.055061   -0.000000
 ---------------------------------------------------------------------

 SCF Done:  E(ROHF) =  -299.092437954     A.U. after   20 cycles
 E2 =    -0.1075031110D+01 EUMP2 =    -0.30016746906424D+03
 CCSD(T)
 CCSD(T)= -0.30019911090D+03

 The electronic state is 3-A'.
 Alpha  occ. eigenvalues --  -20.76530 -20.75108 -20.74294 -20.74270  -1.73932
 Alpha  occ. eigenvalues --   -1.72887  -1.17861  -1.10804  -0.85797  -0.84014
 Alpha  occ. eigenvalues --   -0.80802  -0.75507  -0.72830  -0.72602  -0.51652
 Alpha  occ. eigenvalues --   -0.49839  -0.32285
 Alpha virt. eigenvalues --   -0.08336   0.43538   0.47889   0.63875   0.66837
 Alpha virt. eigenvalues --    0.70285   0.72316   0.72665   0.75006   0.77843
 Alpha virt. eigenvalues --    0.78798   0.80356   0.85817   0.93245   0.94918

 Mulliken charges and spin densities:
               1          2
     1  O   -0.009690   0.571980
     2  O    0.024741   0.425603
     3  O    0.000778   0.362797
     4  O   -0.015829   0.639619
 Sum of Mulliken charges =   0.00000   2.00000

 Dipole moment (field-independent basis, Debye):
    X=             -0.0151    Y=             -0.0429    Z=             -0.0000  Tot=              0.0454
 Quadrupole moment (field-independent basis, Debye-Ang):
   XX=            -20.0588   YY=            -20.6993   ZZ=            -20.1926
   XY=              0.4261   XZ=             -0.0000   YZ=              0.0000

 CSD=-300.1029536\CCSD(T)=-300.1991109\RMSD=4.020e-09\PG=CS [SG(O4)]\\@
 Normal termination of Gaussian 16 at Tue Feb 13 14:04:55 2024.
