 Gaussian 16, Revision A.03,
 Gaussian 16:  ES64L-G16RevA.03 25-Dec-2016

 -----------------------------------------------
 #p ROCCSD(T,MaxCyc=200)/cc-pVTZ SCF(MaxCyc=200)
 -----------------------------------------------

 ---------
 O2_O2_149
 ---------
 Symbolic Z-matrix:
 Charge =  0 Multiplicity = 3

                         Standard orientation:
 ---------------------------------------------------------------------
 Center     Atomic      Atomic             Coordinates (Angstroms)
 Number     Number       Type             X           Y           Z
 ---------------------------------------------------------------------
      1          8           0       -0.870000   -1.770000    0.000000
      2          8           0        0.290000   -1.770000    0.000000
      3          8           0        0.290000    1.190000    0.000000
      4          8           0        0.290000    2.350000    0.000000
 ---------------------------------------------------------------------

 SCF Done:  E(ROHF) =  -299.252220011     A.U. after   25 cycles
 E2 =    -0.9217262498D+00 EUMP2 =    -0.30017394626043D+03
 CCSD(T)
 CCSD(T)= -0.30020073672D+03

 The electronic state is 3-A".
 Alpha  occ. eigenvalues --  -20.73894 -20.73817 -20.73038 -20.72919  -1.74401
 Alpha  occ. eigenvalues --   -1.69978  -1.16947  -1.08700  -0.83756  -0.83686
 Alpha  occ. eigenvalues --   -0.78750  -0.78052  -0.75212  -0.67506  -0.50892
 Alpha  occ. eigenvalues --   -0.50880  -0.44904
 Alpha virt. eigenvalues --    0.04834   0.40638   0.43023   0.63014   0.66423
 Alpha virt. eigenvalues --    0.68238   0.71547   0.72318   0.75163   0.77748
 Alpha virt. eigenvalues --    0.78897   0.79487   0.79624   0.85846   0.87714

 Mulliken charges and spin densities:
               1          2
     1  O    0.001130   1.000306
     2  O   -0.001090   0.999462
     3  O   -0.001901   0.000149
     4  O    0.001861   0.000083
 Sum of Mulliken charges =   0.00000   2.00000

 Dipole moment (field-independent basis, Debye):
    X=              0.0028    Y=              0.0238    Z=              0.0000  Tot=              0.0240
 Quadrupole moment (field-independent basis, Debye-Ang):
   XX=            -21.1118   YY=            -20.3321   ZZ=            -18.8845
   XY=              0.0048   XZ=              0.0000   YZ=              0.0000

 Normal termination of Gaussian 16 at Tue Feb 13 16:43:40 2024.
