 Gaussian 16, Revision A.03,
 Gaussian 16:  ES64L-G16RevA.03 25-Dec-2016

 -----------------------------------------------
 #p ROCCSD(T,MaxCyc=200)/cc-pVTZ SCF(MaxCyc=200)
 -----------------------------------------------

 ---------
 O2_O2_166
 ---------
 Symbolic Z-matrix:
 Charge =  0 Multiplicity = 3

                         Standard orientation:
 ---------------------------------------------------------------------
 Center     Atomic      Atomic             Coordinates (Angstroms)
 Number     Number       Type             X           Y           Z
 ---------------------------------------------------------------------
      1          8           0        0.615183   -2.505183    0.000000
      2          8           0       -0.205061   -1.684939    0.000000
      3          8           0       -0.205061    1.515061   -0.000000
      4          8           0       -0.205061    2.675061   -0.000000
 ---------------------------------------------------------------------

 SCF Done:  E(ROHF) =  -299.252612617     A.U. after   26 cycles
 E2 =    -0.9212229349D+00 EUMP2 =    -0.30017383555136D+03
 CCSD(T)
 CCSD(T)= -0.30020064158D+03

 The electronic state is 3-A".
 Alpha  occ. eigenvalues --  -20.73974 -20.73894 -20.72915 -20.72799  -1.74473
 Alpha  occ. eigenvalues --   -1.69855  -1.17019  -1.08539  -0.83757  -0.83755
 Alpha  occ. eigenvalues --   -0.78630  -0.78125  -0.75120  -0.67383  -0.50948
 Alpha  occ. eigenvalues --   -0.50937  -0.44795
 Alpha virt. eigenvalues --    0.04973   0.38065   0.46168   0.64472   0.67528
 Alpha virt. eigenvalues --    0.68502   0.70713   0.71001   0.74979   0.77997
 Alpha virt. eigenvalues --    0.78734   0.78970   0.83688   0.86129   0.86253

 Mulliken charges and spin densities:
               1          2
     1  O   -0.000302   0.998871
     2  O    0.000517   1.000914
     3  O   -0.000729   0.000171
     4  O    0.000513   0.000044
 Sum of Mulliken charges =  -0.00000   2.00000

 Dipole moment (field-independent basis, Debye):
    X=             -0.0056    Y=             -0.0001    Z=             -0.0000  Tot=              0.0056
 Quadrupole moment (field-independent basis, Debye-Ang):
   XX=            -20.8150   YY=            -20.6579   ZZ=            -18.8845
   XY=              0.3081   XZ=             -0.0000   YZ=              0.0000

 6\CCSD=-300.1625099\CCSD(T)=-300.2006416\RMSD=8.639e-09\PG=CS [SG(O4)]
 Normal termination of Gaussian 16 at Tue Feb 13 17:04:11 2024.
