 Gaussian 16, Revision A.03,
 Gaussian 16:  ES64L-G16RevA.03 25-Dec-2016

 -----------------------------------------------
 #p ROCCSD(T,MaxCyc=200)/cc-pVTZ SCF(MaxCyc=200)
 -----------------------------------------------

 --------
 O2_O2_61
 --------
 Symbolic Z-matrix:
 Charge =  0 Multiplicity = 3

                         Standard orientation:
 ---------------------------------------------------------------------
 Center     Atomic      Atomic             Coordinates (Angstroms)
 Number     Number       Type             X           Y           Z
 ---------------------------------------------------------------------
      1          8           0        0.615183   -1.805183    0.000000
      2          8           0       -0.205061   -0.984939    0.000000
      3          8           0       -0.205061    0.815061    0.000000
      4          8           0       -0.205061    1.975061    0.000000
 ---------------------------------------------------------------------

 SCF Done:  E(ROHF) =  -299.081836213     A.U. after   21 cycles
 E2 =    -0.1060399920D+01 EUMP2 =    -0.30014223613379D+03
 CCSD(T)
 CCSD(T)= -0.30017193058D+03

 The electronic state is 3-A'.
 Alpha  occ. eigenvalues --  -20.77127 -20.74686 -20.73756 -20.73571  -1.74312
 Alpha  occ. eigenvalues --   -1.72614  -1.20227  -1.09678  -0.86777  -0.84119
 Alpha  occ. eigenvalues --   -0.81136  -0.76045  -0.72390  -0.70413  -0.51663
 Alpha  occ. eigenvalues --   -0.49087  -0.33657
 Alpha virt. eigenvalues --   -0.06819   0.44119   0.48338   0.64081   0.67145
 Alpha virt. eigenvalues --    0.70578   0.71786   0.72983   0.75069   0.76915
 Alpha virt. eigenvalues --    0.79048   0.81405   0.85518   0.94883   0.95462

 Mulliken charges and spin densities:
               1          2
     1  O   -0.030601   0.547246
     2  O    0.054872   0.444658
     3  O   -0.004064   0.340335
     4  O   -0.020207   0.667761
 Sum of Mulliken charges =  -0.00000   2.00000

 Dipole moment (field-independent basis, Debye):
    X=             -0.0817    Y=             -0.0331    Z=             -0.0000  Tot=              0.0882
 Quadrupole moment (field-independent basis, Debye-Ang):
   XX=            -20.0805   YY=            -21.0549   ZZ=            -20.1631
   XY=              0.5539   XZ=              0.0000   YZ=              0.0000

 \CCSD=-300.085085\CCSD(T)=-300.1719306\RMSD=4.489e-09\PG=CS [SG(O4)]\\
 Normal termination of Gaussian 16 at Tue Feb 13 13:38:56 2024.
