 Gaussian 16, Revision A.03,
 Gaussian 16:  ES64L-G16RevA.03 25-Dec-2016

 -----------------------------------------------
 #p ROCCSD(T,MaxCyc=200)/cc-pVTZ SCF(MaxCyc=200)
 -----------------------------------------------

 --------
 O2_O2_68
 --------
 Symbolic Z-matrix:
 Charge =  0 Multiplicity = 3

                         Standard orientation:
 ---------------------------------------------------------------------
 Center     Atomic      Atomic             Coordinates (Angstroms)
 Number     Number       Type             X           Y           Z
 ---------------------------------------------------------------------
      1          8           0       -0.870000   -1.230000    0.000000
      2          8           0        0.290000   -1.230000    0.000000
      3          8           0        0.290000    0.650000    0.000000
      4          8           0        0.290000    1.810000    0.000000
 ---------------------------------------------------------------------

 SCF Done:  E(ROHF) =  -299.098707177     A.U. after   21 cycles
 E2 =    -0.1048976657D+01 EUMP2 =    -0.30014768383406D+03
 CCSD(T)
 CCSD(T)= -0.30017687744D+03

 The electronic state is 3-A'.
 Alpha  occ. eigenvalues --  -20.76518 -20.75959 -20.73885 -20.73106  -1.74964
 Alpha  occ. eigenvalues --   -1.71970  -1.16927  -1.12199  -0.85835  -0.82781
 Alpha  occ. eigenvalues --   -0.82739  -0.78474  -0.73693  -0.67038  -0.52521
 Alpha  occ. eigenvalues --   -0.49614  -0.34499
 Alpha virt. eigenvalues --   -0.05869   0.41338   0.47489   0.63768   0.67551
 Alpha virt. eigenvalues --    0.70079   0.70730   0.71205   0.75674   0.77104
 Alpha virt. eigenvalues --    0.78576   0.80905   0.85932   0.87702   0.93564

 Mulliken charges and spin densities:
               1          2
     1  O    0.000290   0.487681
     2  O    0.051081   0.513562
     3  O   -0.030269   0.329250
     4  O   -0.021102   0.669507
 Sum of Mulliken charges =  -0.00000   2.00000

 Dipole moment (field-independent basis, Debye):
    X=              0.0854    Y=             -0.3217    Z=              0.0000  Tot=              0.3329
 Quadrupole moment (field-independent basis, Debye-Ang):
   XX=            -20.4940   YY=            -20.6634   ZZ=            -19.6199
   XY=              0.1758   XZ=              0.0000   YZ=              0.0000

 Normal termination of Gaussian 16 at Tue Feb 13 13:54:07 2024.
