 Gaussian 16, Revision A.03,
 Gaussian 16:  ES64L-G16RevA.03 25-Dec-2016

 -----------------------------------------------
 #p ROCCSD(T,MaxCyc=200)/cc-pVTZ SCF(MaxCyc=200)
 -----------------------------------------------

 --------
 O2_O2_54
 --------
 Symbolic Z-matrix:
 Charge =  0 Multiplicity = 3

                         Standard orientation:
 ---------------------------------------------------------------------
 Center     Atomic      Atomic             Coordinates (Angstroms)
 Number     Number       Type             X           Y           Z
 ---------------------------------------------------------------------
      1          8           0        0.000000    0.000000    2.020000
      2          8           0        0.000000    0.000000    0.860000
      3          8           0        0.000000    0.000000   -0.860000
      4          8           0        0.000000    0.000000   -2.020000
 ---------------------------------------------------------------------

 SCF Done:  E(ROHF) =  -299.075883491     A.U. after   15 cycles
 E2 =    -0.1040661791D+01 EUMP2 =    -0.30011654528137D+03
 CCSD(T)
 CCSD(T)= -0.30015335415D+03

 Unable to determine electronic state:  an orbital has unidentified symmetry.
 Alpha  occ. eigenvalues --  -20.74912 -20.74907 -20.73743 -20.73742  -1.74064
 Alpha  occ. eigenvalues --   -1.72483  -1.21746  -1.08457  -0.85427  -0.84557
 Alpha  occ. eigenvalues --   -0.83057  -0.76099  -0.72109  -0.66493  -0.53755
 Alpha  occ. eigenvalues --   -0.47962  -0.34434
 Alpha virt. eigenvalues --   -0.05204   0.45466   0.48746   0.65173   0.67925
 Alpha virt. eigenvalues --    0.69841   0.71247   0.72671   0.76277   0.77133
 Alpha virt. eigenvalues --    0.81166   0.85049   0.85459   0.96748   0.99049

 Mulliken charges and spin densities:
               1          2
     1  O   -0.030638   0.672347
     2  O    0.030638   0.327653
     3  O    0.030638   0.327653
     4  O   -0.030638   0.672347
 Sum of Mulliken charges =  -0.00000   2.00000

 Dipole moment (field-independent basis, Debye):
    X=              0.0000    Y=              0.0000    Z=              0.0000  Tot=              0.0000
 Quadrupole moment (field-independent basis, Debye-Ang):
   XX=            -20.1687   YY=            -19.5727   ZZ=            -21.1421
   XY=              0.0000   XZ=              0.0000   YZ=              0.0000

 MP2-0=-300.1165453\MP4SDQ=-300.0789521\CCSD=-300.0723545\CCSD(T)=-300.
 Normal termination of Gaussian 16 at Tue Feb 13 13:23:40 2024.
