 Gaussian 16, Revision A.03,
 Gaussian 16:  ES64L-G16RevA.03 25-Dec-2016

 -----------------------------------------------
 #p ROCCSD(T,MaxCyc=200)/cc-pVTZ SCF(MaxCyc=200)
 -----------------------------------------------

 --------
 O2_O2_14
 --------
 Symbolic Z-matrix:
 Charge =  0 Multiplicity = 3

                         Standard orientation:
 ---------------------------------------------------------------------
 Center     Atomic      Atomic             Coordinates (Angstroms)
 Number     Number       Type             X           Y           Z
 ---------------------------------------------------------------------
      1          8           0       -0.870000   -0.870000    0.000000
      2          8           0        0.290000   -0.870000    0.000000
      3          8           0        0.290000    0.290000    0.000000
      4          8           0        0.290000    1.450000    0.000000
 ---------------------------------------------------------------------

 SCF Done:  E(ROHF) =  -298.835868300     A.U. after   41 cycles
 E2 =    -0.9490646866D+00 EUMP2 =    -0.29978493298686D+03
 CCSD(T)
 CCSD(T)= -0.29981228884D+03

 The electronic state is 3-A".
 Alpha  occ. eigenvalues --  -20.87803 -20.85601 -20.73284 -20.56581  -1.99391
 Alpha  occ. eigenvalues --   -1.72264  -1.38201  -1.11640  -1.02767  -0.94364
 Alpha  occ. eigenvalues --   -0.88073  -0.78238  -0.74816  -0.55889  -0.53232
 Alpha  occ. eigenvalues --   -0.46500  -0.42591
 Alpha virt. eigenvalues --    0.16419   0.40556   0.46520   0.59345   0.62150
 Alpha virt. eigenvalues --    0.65717   0.69614   0.73174   0.73468   0.80728
 Alpha virt. eigenvalues --    0.82551   0.84967   0.86573   0.89655   0.98059

 Mulliken charges and spin densities:
               1          2
     1  O   -0.467525   0.265296
     2  O    0.233712   0.273298
     3  O    0.398545   0.878647
     4  O   -0.164733   0.582758
 Sum of Mulliken charges =  -0.00000   2.00000

 Dipole moment (field-independent basis, Debye):
    X=              2.4216    Y=              0.3828    Z=              0.0000  Tot=              2.4516
 Quadrupole moment (field-independent basis, Debye-Ang):
   XX=            -21.6883   YY=            -22.3549   ZZ=            -19.8240
   XY=             -2.1162   XZ=              0.0000   YZ=              0.0000

 Normal termination of Gaussian 16 at Tue Feb 13 12:14:10 2024.
