 Gaussian 16, Revision A.03,
 Gaussian 16:  ES64L-G16RevA.03 25-Dec-2016

 -----------------------------------------------
 #p ROCCSD(T,MaxCyc=200)/cc-pVTZ SCF(MaxCyc=200)
 -----------------------------------------------

 ---------
 O2_O2_139
 ---------
 Symbolic Z-matrix:
 Charge =  0 Multiplicity = 3

                         Standard orientation:
 ---------------------------------------------------------------------
 Center     Atomic      Atomic             Coordinates (Angstroms)
 Number     Number       Type             X           Y           Z
 ---------------------------------------------------------------------
      1          8           0        0.615183   -2.325183   -0.000000
      2          8           0       -0.205061   -1.504939   -0.000000
      3          8           0       -0.205061    1.335061    0.000000
      4          8           0       -0.205061    2.495061    0.000000
 ---------------------------------------------------------------------

 SCF Done:  E(ROHF) =  -299.252086707     A.U. after   26 cycles
 E2 =    -0.9217907481D+00 EUMP2 =    -0.30017387745472D+03
 CCSD(T)
 CCSD(T)= -0.30020056221D+03

 The electronic state is 3-A".
 Alpha  occ. eigenvalues --  -20.74143 -20.74042 -20.72817 -20.72697  -1.74637
 Alpha  occ. eigenvalues --   -1.69761  -1.17228  -1.08449  -0.83917  -0.83915
 Alpha  occ. eigenvalues --   -0.78537  -0.78451  -0.74924  -0.67273  -0.51121
 Alpha  occ. eigenvalues --   -0.51115  -0.44695
 Alpha virt. eigenvalues --    0.05066   0.39678   0.46793   0.65690   0.66507
 Alpha virt. eigenvalues --    0.66753   0.70713   0.71333   0.76104   0.77466
 Alpha virt. eigenvalues --    0.78680   0.79264   0.85448   0.86176   0.86779

 Mulliken charges and spin densities:
               1          2
     1  O   -0.001516   0.000034
     2  O    0.001209   0.000198
     3  O   -0.000764   0.997650
     4  O    0.001071   1.002118
 Sum of Mulliken charges =  -0.00000   2.00000

 Dipole moment (field-independent basis, Debye):
    X=             -0.0161    Y=              0.0304    Z=             -0.0000  Tot=              0.0345
 Quadrupole moment (field-independent basis, Debye-Ang):
   XX=            -19.5978   YY=            -20.2134   ZZ=            -20.5126
   XY=              0.7134   XZ=             -0.0000   YZ=             -0.0000

 \CCSD=-300.1623756\CCSD(T)=-300.2005622\RMSD=3.330e-09\PG=CS [SG(O4)]\
 Normal termination of Gaussian 16 at Tue Feb 13 16:31:31 2024.
