 Gaussian 16, Revision A.03,
 Gaussian 16:  ES64L-G16RevA.03 25-Dec-2016

 -----------------------------------------------
 #p ROCCSD(T,MaxCyc=200)/cc-pVTZ SCF(MaxCyc=200)
 -----------------------------------------------

 ---------
 O2_O2_272
 ---------
 Symbolic Z-matrix:
 Charge =  0 Multiplicity = 3

                         Standard orientation:
 ---------------------------------------------------------------------
 Center     Atomic      Atomic             Coordinates (Angstroms)
 Number     Number       Type             X           Y           Z
 ---------------------------------------------------------------------
      1          8           0       -0.870000   -2.590000    0.000000
      2          8           0        0.290000   -2.590000    0.000000
      3          8           0        0.290000    2.010000    0.000000
      4          8           0        0.290000    3.170000    0.000000
 ---------------------------------------------------------------------

 SCF Done:  E(ROHF) =  -299.252737423     A.U. after   32 cycles
 E2 =    -0.9206488386D+00 EUMP2 =    -0.30017338626145D+03
 CCSD(T)
 CCSD(T)= -0.30020027852D+03

 The electronic state is 3-A".
 Alpha  occ. eigenvalues --  -20.74007 -20.73931 -20.72987 -20.72871  -1.74506
 Alpha  occ. eigenvalues --   -1.69920  -1.17050  -1.08609  -0.83787  -0.83784
 Alpha  occ. eigenvalues --   -0.78696  -0.78132  -0.75231  -0.67449  -0.50982
 Alpha  occ. eigenvalues --   -0.50980  -0.44866
 Alpha virt. eigenvalues --    0.04909   0.41434   0.43178   0.67806   0.68014
 Alpha virt. eigenvalues --    0.70363   0.70523   0.72069   0.72677   0.78018
 Alpha virt. eigenvalues --    0.79490   0.79797   0.80278   0.82196   0.84671

 Mulliken charges and spin densities:
               1          2
     1  O    0.000074   1.000077
     2  O   -0.000056   0.999921
     3  O   -0.000297   0.000002
     4  O    0.000278  -0.000000
 Sum of Mulliken charges =  -0.00000   2.00000

 Dipole moment (field-independent basis, Debye):
    X=              0.0000    Y=              0.0036    Z=              0.0000  Tot=              0.0036
 Quadrupole moment (field-independent basis, Debye-Ang):
   XX=            -21.1129   YY=            -20.3004   ZZ=            -18.8836
   XY=              0.0016   XZ=              0.0000   YZ=              0.0000

 Normal termination of Gaussian 16 at Tue Feb 13 19:10:40 2024.
