 Gaussian 16, Revision A.03,
 Gaussian 16:  ES64L-G16RevA.03 25-Dec-2016

 -----------------------------------------------
 #p ROCCSD(T,MaxCyc=200)/cc-pVTZ SCF(MaxCyc=200)
 -----------------------------------------------

 --------
 O2_O2_92
 --------
 Symbolic Z-matrix:
 Charge =  0 Multiplicity = 3

                         Standard orientation:
 ---------------------------------------------------------------------
 Center     Atomic      Atomic             Coordinates (Angstroms)
 Number     Number       Type             X           Y           Z
 ---------------------------------------------------------------------
      1          8           0       -0.870000   -1.390000    0.000000
      2          8           0        0.290000   -1.390000    0.000000
      3          8           0        0.290000    0.810000    0.000000
      4          8           0        0.290000    1.970000    0.000000
 ---------------------------------------------------------------------

 SCF Done:  E(ROHF) =  -299.106817138     A.U. after   20 cycles
 E2 =    -0.1077026553D+01 EUMP2 =    -0.30018384369084D+03
 CCSD(T)
 CCSD(T)= -0.30021525208D+03

 The electronic state is 3-A'.
 Alpha  occ. eigenvalues --  -20.76322 -20.76051 -20.75142 -20.74338  -1.74162
 Alpha  occ. eigenvalues --   -1.72879  -1.15039  -1.13120  -0.85130  -0.83706
 Alpha  occ. eigenvalues --   -0.80403  -0.78031  -0.74053  -0.71196  -0.51958
 Alpha  occ. eigenvalues --   -0.50577  -0.32263
 Alpha virt. eigenvalues --   -0.08762   0.41425   0.46122   0.63092   0.68408
 Alpha virt. eigenvalues --    0.70416   0.70850   0.71599   0.73265   0.76828
 Alpha virt. eigenvalues --    0.78067   0.78557   0.85040   0.86234   0.87236

 Mulliken charges and spin densities:
               1          2
     1  O   -0.007844   0.465450
     2  O    0.035979   0.535019
     3  O   -0.020271   0.367766
     4  O   -0.007863   0.631765
 Sum of Mulliken charges =  -0.00000   2.00000

 Dipole moment (field-independent basis, Debye):
    X=              0.0615    Y=             -0.1787    Z=              0.0000  Tot=              0.1890
 Quadrupole moment (field-independent basis, Debye-Ang):
   XX=            -20.6494   YY=            -20.2625   ZZ=            -19.6765
   XY=              0.1367   XZ=              0.0000   YZ=              0.0000

 Normal termination of Gaussian 16 at Tue Feb 13 14:44:07 2024.
