 Gaussian 16, Revision A.03,
 Gaussian 16:  ES64L-G16RevA.03 25-Dec-2016

 -----------------------------------------------
 #p ROCCSD(T,MaxCyc=200)/cc-pVTZ SCF(MaxCyc=200)
 -----------------------------------------------

 ---------
 O2_O2_260
 ---------
 Symbolic Z-matrix:
 Charge =  0 Multiplicity = 3

                         Standard orientation:
 ---------------------------------------------------------------------
 Center     Atomic      Atomic             Coordinates (Angstroms)
 Number     Number       Type             X           Y           Z
 ---------------------------------------------------------------------
      1          8           0       -0.870000   -2.510000    0.000000
      2          8           0        0.290000   -2.510000    0.000000
      3          8           0        0.290000    1.930000    0.000000
      4          8           0        0.290000    3.090000    0.000000
 ---------------------------------------------------------------------

 SCF Done:  E(ROHF) =  -299.252743727     A.U. after   28 cycles
 E2 =    -0.9206677463D+00 EUMP2 =    -0.30017341147306D+03
 CCSD(T)
 CCSD(T)= -0.30020030057D+03

 The electronic state is 3-A".
 Alpha  occ. eigenvalues --  -20.74004 -20.73928 -20.72989 -20.72874  -1.74503
 Alpha  occ. eigenvalues --   -1.69922  -1.17047  -1.08612  -0.83784  -0.83780
 Alpha  occ. eigenvalues --   -0.78699  -0.78128  -0.75234  -0.67451  -0.50979
 Alpha  occ. eigenvalues --   -0.50976  -0.44868
 Alpha virt. eigenvalues --    0.04906   0.41429   0.43118   0.67576   0.68015
 Alpha virt. eigenvalues --    0.70358   0.70522   0.72073   0.72863   0.78018
 Alpha virt. eigenvalues --    0.79358   0.79800   0.80480   0.82238   0.84670

 Mulliken charges and spin densities:
               1          2
     1  O    0.000113   1.000119
     2  O   -0.000078   0.999876
     3  O   -0.000354   0.000004
     4  O    0.000318  -0.000000
 Sum of Mulliken charges =  -0.00000   2.00000

 Dipole moment (field-independent basis, Debye):
    X=             -0.0001    Y=              0.0038    Z=              0.0000  Tot=              0.0038
 Quadrupole moment (field-independent basis, Debye-Ang):
   XX=            -21.1127   YY=            -20.2991   ZZ=            -18.8836
   XY=              0.0021   XZ=              0.0000   YZ=              0.0000

 Normal termination of Gaussian 16 at Tue Feb 13 18:56:17 2024.
