 Gaussian 16, Revision A.03,
 Gaussian 16:  ES64L-G16RevA.03 25-Dec-2016

 -----------------------------------------------
 #p ROCCSD(T,MaxCyc=200)/cc-pVTZ SCF(MaxCyc=200)
 -----------------------------------------------

 --------
 O2_O2_65
 --------
 Symbolic Z-matrix:
 Charge =  0 Multiplicity = 3

                         Standard orientation:
 ---------------------------------------------------------------------
 Center     Atomic      Atomic             Coordinates (Angstroms)
 Number     Number       Type             X           Y           Z
 ---------------------------------------------------------------------
      1          8           0       -0.870000   -1.210000    0.000000
      2          8           0        0.290000   -1.210000    0.000000
      3          8           0        0.290000    0.630000    0.000000
      4          8           0        0.290000    1.790000    0.000000
 ---------------------------------------------------------------------

 SCF Done:  E(ROHF) =  -299.094397424     A.U. after   21 cycles
 E2 =    -0.1045466502D+01 EUMP2 =    -0.30013986392519D+03
 CCSD(T)
 CCSD(T)= -0.30016862047D+03

 The electronic state is 3-A'.
 Alpha  occ. eigenvalues --  -20.76585 -20.75991 -20.73579 -20.72831  -1.75169
 Alpha  occ. eigenvalues --   -1.71763  -1.17340  -1.12022  -0.85998  -0.83058
 Alpha  occ. eigenvalues --   -0.82586  -0.78605  -0.73599  -0.66296  -0.52665
 Alpha  occ. eigenvalues --   -0.49398  -0.34822
 Alpha virt. eigenvalues --   -0.05404   0.41279   0.47683   0.63913   0.67030
 Alpha virt. eigenvalues --    0.70207   0.70644   0.71345   0.75887   0.77170
 Alpha virt. eigenvalues --    0.78550   0.81343   0.86045   0.87831   0.94423

 Mulliken charges and spin densities:
               1          2
     1  O    0.004334   0.498711
     2  O    0.053164   0.502703
     3  O   -0.033857   0.323910
     4  O   -0.023641   0.674676
 Sum of Mulliken charges =  -0.00000   2.00000

 Dipole moment (field-independent basis, Debye):
    X=              0.0808    Y=             -0.3621    Z=              0.0000  Tot=              0.3710
 Quadrupole moment (field-independent basis, Debye-Ang):
   XX=            -20.4567   YY=            -20.7409   ZZ=            -19.6069
   XY=              0.1819   XZ=              0.0000   YZ=              0.0000

 Normal termination of Gaussian 16 at Tue Feb 13 13:47:53 2024.
