 Gaussian 16, Revision A.03,
 Gaussian 16:  ES64L-G16RevA.03 25-Dec-2016

 -----------------------------------------------
 #p ROCCSD(T,MaxCyc=200)/cc-pVTZ SCF(MaxCyc=200)
 -----------------------------------------------

 ---------
 O2_O2_103
 ---------
 Symbolic Z-matrix:
 Charge =  0 Multiplicity = 3

                         Standard orientation:
 ---------------------------------------------------------------------
 Center     Atomic      Atomic             Coordinates (Angstroms)
 Number     Number       Type             X           Y           Z
 ---------------------------------------------------------------------
      1          8           0        0.615183   -2.085183   -0.000000
      2          8           0       -0.205061   -1.264939   -0.000000
      3          8           0       -0.205061    1.095061    0.000000
      4          8           0       -0.205061    2.255061    0.000000
 ---------------------------------------------------------------------

 SCF Done:  E(ROHF) =  -299.087000569     A.U. after   20 cycles
 E2 =    -0.1117825769D+01 EUMP2 =    -0.30020482633796D+03
 CCSD(T)
 CCSD(T)= -0.30023052664D+03

 The electronic state is 3-A'.
 Alpha  occ. eigenvalues --  -20.75990 -20.75518 -20.75036 -20.74888  -1.73572
 Alpha  occ. eigenvalues --   -1.73215  -1.15167  -1.12483  -0.84724  -0.84108
 Alpha  occ. eigenvalues --   -0.79413  -0.75589  -0.74871  -0.73486  -0.51477
 Alpha  occ. eigenvalues --   -0.50704  -0.29942
 Alpha virt. eigenvalues --   -0.11088   0.42003   0.46992   0.64056   0.66655
 Alpha virt. eigenvalues --    0.69011   0.71289   0.72048   0.74760   0.77807
 Alpha virt. eigenvalues --    0.79030   0.80037   0.85398   0.86407   0.89517

 Mulliken charges and spin densities:
               1          2
     1  O    0.006128   0.571733
     2  O    0.000785   0.428506
     3  O   -0.002047   0.406562
     4  O   -0.004865   0.593199
 Sum of Mulliken charges =  -0.00000   2.00000

 Dipole moment (field-independent basis, Debye):
    X=              0.0319    Y=             -0.0398    Z=              0.0000  Tot=              0.0510
 Quadrupole moment (field-independent basis, Debye-Ang):
   XX=            -20.0425   YY=            -20.3667   ZZ=            -20.1783
   XY=              0.3077   XZ=              0.0000   YZ=             -0.0000

 4\CCSD=-300.1141373\CCSD(T)=-300.2305266\RMSD=6.819e-09\PG=CS [SG(O4)]
 Normal termination of Gaussian 16 at Tue Feb 13 15:09:56 2024.
