 Gaussian 16, Revision A.03,
 Gaussian 16:  ES64L-G16RevA.03 25-Dec-2016

 -----------------------------------------------
 #p ROCCSD(T,MaxCyc=200)/cc-pVTZ SCF(MaxCyc=200)
 -----------------------------------------------

 --------
 O2_O2_11
 --------
 Symbolic Z-matrix:
 Charge =  0 Multiplicity = 3

                         Standard orientation:
 ---------------------------------------------------------------------
 Center     Atomic      Atomic             Coordinates (Angstroms)
 Number     Number       Type             X           Y           Z
 ---------------------------------------------------------------------
      1          8           0       -0.870000   -0.850000    0.000000
      2          8           0        0.290000   -0.850000    0.000000
      3          8           0        0.290000    0.270000    0.000000
      4          8           0        0.290000    1.430000    0.000000
 ---------------------------------------------------------------------

 SCF Done:  E(ROHF) =  -298.809602319     A.U. after   29 cycles
 E2 =    -0.9431078882D+00 EUMP2 =    -0.29975271020669D+03
 CCSD(T)
 CCSD(T)= -0.29977943333D+03

 The electronic state is 3-A".
 Alpha  occ. eigenvalues --  -20.88089 -20.85800 -20.71572 -20.57737  -2.03274
 Alpha  occ. eigenvalues --   -1.71743  -1.40285  -1.12108  -1.04960  -0.94418
 Alpha  occ. eigenvalues --   -0.88131  -0.77528  -0.75092  -0.55720  -0.52680
 Alpha  occ. eigenvalues --   -0.46447  -0.42902
 Alpha virt. eigenvalues --    0.19354   0.40036   0.46470   0.59566   0.61756
 Alpha virt. eigenvalues --    0.65090   0.69862   0.73367   0.73601   0.80340
 Alpha virt. eigenvalues --    0.81945   0.85267   0.86558   0.90168   0.98377

 Mulliken charges and spin densities:
               1          2
     1  O   -0.451838   0.318605
     2  O    0.232895   0.302136
     3  O    0.414823   0.859635
     4  O   -0.195881   0.519624
 Sum of Mulliken charges =  -0.00000   2.00000

 Dipole moment (field-independent basis, Debye):
    X=              2.3199    Y=              0.0306    Z=              0.0000  Tot=              2.3201
 Quadrupole moment (field-independent basis, Debye-Ang):
   XX=            -21.5922   YY=            -22.5548   ZZ=            -19.7414
   XY=             -2.0552   XZ=              0.0000   YZ=              0.0000

 Normal termination of Gaussian 16 at Tue Feb 13 12:08:55 2024.
