 Gaussian 16, Revision A.03,
 Gaussian 16:  ES64L-G16RevA.03 25-Dec-2016

 -----------------------------------------------
 #p ROCCSD(T,MaxCyc=200)/cc-pVTZ SCF(MaxCyc=200)
 -----------------------------------------------

 --------
 O2_O2_75
 --------
 Symbolic Z-matrix:
 Charge =  0 Multiplicity = 3

                         Standard orientation:
 ---------------------------------------------------------------------
 Center     Atomic      Atomic             Coordinates (Angstroms)
 Number     Number       Type             X           Y           Z
 ---------------------------------------------------------------------
      1          8           0        0.000000    0.000000    2.160000
      2          8           0        0.000000    0.000000    1.000000
      3          8           0        0.000000    0.000000   -1.000000
      4          8           0        0.000000    0.000000   -2.160000
 ---------------------------------------------------------------------

 SCF Done:  E(ROHF) =  -299.069226112     A.U. after   13 cycles
 E2 =    -0.1085674085D+01 EUMP2 =    -0.30015490019650D+03
 CCSD(T)
 CCSD(T)= -0.30016327844D+03

 Unable to determine electronic state:  an orbital has unidentified symmetry.
 Alpha  occ. eigenvalues --  -20.77101 -20.77100 -20.73884 -20.73884  -1.73976
 Alpha  occ. eigenvalues --   -1.73217  -1.17989  -1.10844  -0.83150  -0.82200
 Alpha  occ. eigenvalues --   -0.81723  -0.77527  -0.74915  -0.72559  -0.49943
 Alpha  occ. eigenvalues --   -0.47134  -0.33448
 Alpha virt. eigenvalues --   -0.11651   0.44427   0.48742   0.64650   0.65242
 Alpha virt. eigenvalues --    0.71320   0.71395   0.72103   0.76494   0.77101
 Alpha virt. eigenvalues --    0.78169   0.84329   0.85549   0.91021   0.94807

 Mulliken charges and spin densities:
               1          2
     1  O   -0.058033   0.463474
     2  O    0.058033   0.536526
     3  O    0.058033   0.536526
     4  O   -0.058033   0.463474
 Sum of Mulliken charges =  -0.00000   2.00000

 Dipole moment (field-independent basis, Debye):
    X=             -0.0000    Y=              0.0000    Z=             -0.0000  Tot=              0.0000
 Quadrupole moment (field-independent basis, Debye-Ang):
   XX=            -19.1545   YY=            -20.7496   ZZ=            -21.9488
   XY=              0.0000   XZ=              0.0000   YZ=              0.0000

 P2-0=-300.1549002\MP4SDQ=-300.0795836\CCSD=-300.0748909\CCSD(T)=-300.1
 Normal termination of Gaussian 16 at Tue Feb 13 14:08:25 2024.
