 Gaussian 16, Revision A.03,
 Gaussian 16:  ES64L-G16RevA.03 25-Dec-2016

 -----------------------------------------------
 #p ROCCSD(T,MaxCyc=200)/cc-pVTZ SCF(MaxCyc=200)
 -----------------------------------------------

 ---------
 O2_O2_132
 ---------
 Symbolic Z-matrix:
 Charge =  0 Multiplicity = 3

                         Standard orientation:
 ---------------------------------------------------------------------
 Center     Atomic      Atomic             Coordinates (Angstroms)
 Number     Number       Type             X           Y           Z
 ---------------------------------------------------------------------
      1          8           0        0.000000    0.000000    2.540000
      2          8           0        0.000000    0.000000    1.380000
      3          8           0        0.000000    0.000000   -1.380000
      4          8           0        0.000000    0.000000   -2.540000
 ---------------------------------------------------------------------

 SCF Done:  E(ROHF) =  -299.047939479     A.U. after   13 cycles
 E2 =    -0.1150388191D+01 EUMP2 =    -0.30019832766999D+03
 CCSD(T)
 CCSD(T)= -0.30019177907D+03

 Unable to determine electronic state:  an orbital has unidentified symmetry.
 Alpha  occ. eigenvalues --  -20.76378 -20.76377 -20.74690 -20.74689  -1.73450
 Alpha  occ. eigenvalues --   -1.73361  -1.14354  -1.13193  -0.82355  -0.82145
 Alpha  occ. eigenvalues --   -0.78741  -0.76753  -0.76561  -0.75713  -0.48772
 Alpha  occ. eigenvalues --   -0.48275  -0.30262
 Alpha virt. eigenvalues --   -0.15224   0.39289   0.48431   0.66089   0.66378
 Alpha virt. eigenvalues --    0.66445   0.70270   0.70362   0.75683   0.76753
 Alpha virt. eigenvalues --    0.77825   0.79634   0.85696   0.86822   0.87524

 Mulliken charges and spin densities:
               1          2
     1  O   -0.020450   0.476840
     2  O    0.020450   0.523160
     3  O    0.020450   0.523160
     4  O   -0.020450   0.476840
 Sum of Mulliken charges =   0.00000   2.00000

 Dipole moment (field-independent basis, Debye):
    X=             -0.0000    Y=              0.0000    Z=              0.0000  Tot=              0.0000
 Quadrupole moment (field-independent basis, Debye-Ang):
   XX=            -20.7299   YY=            -19.1208   ZZ=            -21.5356
   XY=              0.0000   XZ=              0.0000   YZ=              0.0000

 PMP2-0=-300.1983277\MP4SDQ=-300.0543283\CCSD=-300.0739733\CCSD(T)=-300
 Normal termination of Gaussian 16 at Tue Feb 13 16:16:46 2024.
