 Gaussian 16, Revision A.03,
 Gaussian 16:  ES64L-G16RevA.03 25-Dec-2016

 -----------------------------------------------
 #p ROCCSD(T,MaxCyc=200)/cc-pVTZ SCF(MaxCyc=200)
 -----------------------------------------------

 ---------
 O2_O2_131
 ---------
 Symbolic Z-matrix:
 Charge =  0 Multiplicity = 3

                         Standard orientation:
 ---------------------------------------------------------------------
 Center     Atomic      Atomic             Coordinates (Angstroms)
 Number     Number       Type             X           Y           Z
 ---------------------------------------------------------------------
      1          8           0       -0.870000   -1.650000    0.000000
      2          8           0        0.290000   -1.650000    0.000000
      3          8           0        0.290000    1.070000    0.000000
      4          8           0        0.290000    2.230000    0.000000
 ---------------------------------------------------------------------

 SCF Done:  E(ROHF) =  -299.087160009     A.U. after   21 cycles
 E2 =    -0.1126177403D+01 EUMP2 =    -0.30021333741219D+03
 CCSD(T)
 CCSD(T)= -0.30023654728D+03

 The electronic state is 3-A'.
 Alpha  occ. eigenvalues --  -20.76011 -20.75902 -20.75511 -20.74971  -1.73741
 Alpha  occ. eigenvalues --   -1.73252  -1.14162  -1.13590  -0.84665  -0.84136
 Alpha  occ. eigenvalues --   -0.78488  -0.77713  -0.74161  -0.73727  -0.51594
 Alpha  occ. eigenvalues --   -0.51013  -0.29745
 Alpha virt. eigenvalues --   -0.11637   0.40991   0.43570   0.64237   0.64665
 Alpha virt. eigenvalues --    0.68299   0.69593   0.72071   0.75650   0.76389
 Alpha virt. eigenvalues --    0.78073   0.78529   0.80406   0.82858   0.86867

 Mulliken charges and spin densities:
               1          2
     1  O   -0.004636   0.484330
     2  O    0.018309   0.515770
     3  O   -0.019228   0.412144
     4  O    0.005555   0.587756
 Sum of Mulliken charges =  -0.00000   2.00000

 Dipole moment (field-independent basis, Debye):
    X=              0.0148    Y=             -0.1018    Z=              0.0000  Tot=              0.1029
 Quadrupole moment (field-independent basis, Debye-Ang):
   XX=            -20.6733   YY=            -20.1322   ZZ=            -19.6935
   XY=              0.0748   XZ=              0.0000   YZ=              0.0000

 Normal termination of Gaussian 16 at Tue Feb 13 16:15:23 2024.
