 Gaussian 16, Revision A.03,
 Gaussian 16:  ES64L-G16RevA.03 25-Dec-2016

 -----------------------------------------------
 #p ROCCSD(T,MaxCyc=200)/cc-pVTZ SCF(MaxCyc=200)
 -----------------------------------------------

 --------
 O2_O2_18
 --------
 Symbolic Z-matrix:
 Charge =  0 Multiplicity = 3

                         Standard orientation:
 ---------------------------------------------------------------------
 Center     Atomic      Atomic             Coordinates (Angstroms)
 Number     Number       Type             X           Y           Z
 ---------------------------------------------------------------------
      1          8           0        0.000000    0.000000    1.780000
      2          8           0        0.000000    0.000000    0.620000
      3          8           0        0.000000    0.000000   -0.620000
      4          8           0        0.000000    0.000000   -1.780000
 ---------------------------------------------------------------------

 SCF Done:  E(ROHF) =  -298.767105050     A.U. after   14 cycles
 E2 =    -0.1098127607D+01 EUMP2 =    -0.29986523265722D+03
 CCSD(T)
 CCSD(T)= -0.29983930765D+03

 Unable to determine electronic state:  an orbital has unidentified symmetry.
 Alpha  occ. eigenvalues --  -20.87536 -20.87503 -20.67109 -20.67108  -1.87923
 Alpha  occ. eigenvalues --   -1.73449  -1.49024  -1.01704  -0.97745  -0.89569
 Alpha  occ. eigenvalues --   -0.87979  -0.81485  -0.71049  -0.54361  -0.48016
 Alpha  occ. eigenvalues --   -0.44088  -0.40864
 Alpha virt. eigenvalues --   -0.02298   0.42405   0.50273   0.59476   0.62282
 Alpha virt. eigenvalues --    0.63886   0.67409   0.73451   0.74560   0.82437
 Alpha virt. eigenvalues --    0.82610   0.84334   0.95337   0.96731   0.99074

 Mulliken charges and spin densities:
               1          2
     1  O   -0.246327   0.290528
     2  O    0.246327   0.709472
     3  O    0.246327   0.709472
     4  O   -0.246327   0.290528
 Sum of Mulliken charges =  -0.00000   2.00000

 Dipole moment (field-independent basis, Debye):
    X=             -0.0000    Y=              0.0000    Z=              0.0000  Tot=              0.0000
 Quadrupole moment (field-independent basis, Debye-Ang):
   XX=            -20.0843   YY=            -19.5322   ZZ=            -27.4576
   XY=              0.0000   XZ=              0.0000   YZ=              0.0000

 2-0=-299.8652327\MP4SDQ=-299.7790479\CCSD=-299.7702107\CCSD(T)=-299.83
 Normal termination of Gaussian 16 at Tue Feb 13 12:20:42 2024.
