 Gaussian 16, Revision A.03,
 Gaussian 16:  ES64L-G16RevA.03 25-Dec-2016

 -----------------------------------------------
 #p ROCCSD(T,MaxCyc=200)/cc-pVTZ SCF(MaxCyc=200)
 -----------------------------------------------

 ---------
 O2_O2_286
 ---------
 Symbolic Z-matrix:
 Charge =  0 Multiplicity = 3

                         Standard orientation:
 ---------------------------------------------------------------------
 Center     Atomic      Atomic             Coordinates (Angstroms)
 Number     Number       Type             X           Y           Z
 ---------------------------------------------------------------------
      1          8           0        0.615183   -3.305183    0.000000
      2          8           0       -0.205061   -2.484939    0.000000
      3          8           0       -0.205061    2.315062   -0.000000
      4          8           0       -0.205061    3.475060   -0.000000
 ---------------------------------------------------------------------

 SCF Done:  E(ROHF) =  -299.252725504     A.U. after   62 cycles
 E2 =    -0.9206300195D+00 EUMP2 =    -0.30017335552300D+03
 CCSD(T)
 CCSD(T)= -0.30020024925D+03

 The electronic state is 3-A".
 Alpha  occ. eigenvalues --  -20.74001 -20.73922 -20.72931 -20.72815  -1.74501
 Alpha  occ. eigenvalues --   -1.69865  -1.17042  -1.08552  -0.83780  -0.83780
 Alpha  occ. eigenvalues --   -0.78641  -0.78122  -0.75172  -0.67394  -0.50974
 Alpha  occ. eigenvalues --   -0.50974  -0.44809
 Alpha virt. eigenvalues --    0.04965   0.41288   0.43448   0.68022   0.68025
 Alpha virt. eigenvalues --    0.70368   0.70575   0.71888   0.72760   0.77964
 Alpha virt. eigenvalues --    0.79805   0.79807   0.80031   0.82302   0.84727

 Mulliken charges and spin densities:
               1          2
     1  O   -0.000248   0.000000
     2  O    0.000258   0.000000
     3  O    0.000722   1.000819
     4  O   -0.000731   0.999181
 Sum of Mulliken charges =  -0.00000   2.00000

 Dipole moment (field-independent basis, Debye):
    X=             -0.0006    Y=             -0.0041    Z=             -0.0000  Tot=              0.0042
 Quadrupole moment (field-independent basis, Debye-Ang):
   XX=            -20.4105   YY=            -21.0507   ZZ=            -18.8837
   XY=             -0.0987   XZ=             -0.0000   YZ=              0.0000

 \CCSD=-300.1621869\CCSD(T)=-300.2002493\RMSD=1.220e-09\PG=CS [SG(O4)]\
 Normal termination of Gaussian 16 at Tue Feb 13 19:21:10 2024.
