 Gaussian 16, Revision A.03,
 Gaussian 16:  ES64L-G16RevA.03 25-Dec-2016

 -----------------------------------------------
 #p ROCCSD(T,MaxCyc=200)/cc-pVTZ SCF(MaxCyc=200)
 -----------------------------------------------

 ---------
 O2_O2_143
 ---------
 Symbolic Z-matrix:
 Charge =  0 Multiplicity = 3

                         Standard orientation:
 ---------------------------------------------------------------------
 Center     Atomic      Atomic             Coordinates (Angstroms)
 Number     Number       Type             X           Y           Z
 ---------------------------------------------------------------------
      1          8           0       -0.870000   -1.730000    0.000000
      2          8           0        0.290000   -1.730000    0.000000
      3          8           0        0.290000    1.150000    0.000000
      4          8           0        0.290000    2.310000    0.000000
 ---------------------------------------------------------------------

 SCF Done:  E(ROHF) =  -299.251918738     A.U. after   25 cycles
 E2 =    -0.9218975386D+00 EUMP2 =    -0.30017381627615D+03
 CCSD(T)
 CCSD(T)= -0.30020059508D+03

 The electronic state is 3-A".
 Alpha  occ. eigenvalues --  -20.73871 -20.73794 -20.73038 -20.72917  -1.74385
 Alpha  occ. eigenvalues --   -1.69982  -1.16933  -1.08717  -0.83771  -0.83669
 Alpha  occ. eigenvalues --   -0.78755  -0.78044  -0.75185  -0.67511  -0.50882
 Alpha  occ. eigenvalues --   -0.50862  -0.44903
 Alpha virt. eigenvalues --    0.04825   0.40757   0.43356   0.63281   0.66154
 Alpha virt. eigenvalues --    0.68034   0.71714   0.72330   0.75127   0.77542
 Alpha virt. eigenvalues --    0.78549   0.79599   0.79756   0.86095   0.87687

 Mulliken charges and spin densities:
               1          2
     1  O    0.001212   1.000118
     2  O   -0.001243   0.999598
     3  O   -0.001491   0.000173
     4  O    0.001522   0.000112
 Sum of Mulliken charges =  -0.00000   2.00000

 Dipole moment (field-independent basis, Debye):
    X=              0.0042    Y=              0.0282    Z=              0.0000  Tot=              0.0285
 Quadrupole moment (field-independent basis, Debye-Ang):
   XX=            -21.1123   YY=            -20.3454   ZZ=            -18.8845
   XY=              0.0031   XZ=              0.0000   YZ=              0.0000

 CCSD(T)=-300.2005951\RMSD=6.904e-09\PG=CS [SG(O4)]\\@
 Normal termination of Gaussian 16 at Tue Feb 13 16:36:39 2024.
