 Gaussian 16, Revision A.03,
 Gaussian 16:  ES64L-G16RevA.03 25-Dec-2016

 -----------------------------------------------
 #p ROCCSD(T,MaxCyc=200)/cc-pVTZ SCF(MaxCyc=200)
 -----------------------------------------------

 ---------
 O2_O2_185
 ---------
 Symbolic Z-matrix:
 Charge =  0 Multiplicity = 3

                         Standard orientation:
 ---------------------------------------------------------------------
 Center     Atomic      Atomic             Coordinates (Angstroms)
 Number     Number       Type             X           Y           Z
 ---------------------------------------------------------------------
      1          8           0       -0.870000   -2.010000    0.000000
      2          8           0        0.290000   -2.010000    0.000000
      3          8           0        0.290000    1.430000    0.000000
      4          8           0        0.290000    2.590000    0.000000
 ---------------------------------------------------------------------

 SCF Done:  E(ROHF) =  -299.252864732     A.U. after   26 cycles
 E2 =    -0.9210745031D+00 EUMP2 =    -0.30017393923459D+03
 CCSD(T)
 CCSD(T)= -0.30020075373D+03

 The electronic state is 3-A".
 Alpha  occ. eigenvalues --  -20.74347 -20.74204 -20.72881 -20.72764  -1.74800
 Alpha  occ. eigenvalues --   -1.69806  -1.17368  -1.08495  -0.84080  -0.84080
 Alpha  occ. eigenvalues --   -0.78585  -0.78475  -0.75116  -0.67313  -0.51283
 Alpha  occ. eigenvalues --   -0.51283  -0.44756
 Alpha virt. eigenvalues --    0.05011   0.39483   0.43492   0.63626   0.67437
 Alpha virt. eigenvalues --    0.67496   0.70509   0.72532   0.75368   0.77426
 Alpha virt. eigenvalues --    0.79673   0.80316   0.81121   0.82475   0.86701

 Mulliken charges and spin densities:
               1          2
     1  O   -0.000366   0.000024
     2  O    0.000973   0.000034
     3  O   -0.005728   0.995055
     4  O    0.005122   1.004888
 Sum of Mulliken charges =  -0.00000   2.00000

 Dipole moment (field-independent basis, Debye):
    X=              0.0054    Y=              0.0326    Z=              0.0000  Tot=              0.0331
 Quadrupole moment (field-independent basis, Debye-Ang):
   XX=            -20.3054   YY=            -19.3522   ZZ=            -20.5121
   XY=              0.0094   XZ=              0.0000   YZ=              0.0000

 Normal termination of Gaussian 16 at Tue Feb 13 17:27:21 2024.
