 Gaussian 16, Revision A.03,
 Gaussian 16:  ES64L-G16RevA.03 25-Dec-2016

 -----------------------------------------------
 #p ROCCSD(T,MaxCyc=200)/cc-pVTZ SCF(MaxCyc=200)
 -----------------------------------------------

 --------
 O2_O2_40
 --------
 Symbolic Z-matrix:
 Charge =  0 Multiplicity = 3

                         Standard orientation:
 ---------------------------------------------------------------------
 Center     Atomic      Atomic             Coordinates (Angstroms)
 Number     Number       Type             X           Y           Z
 ---------------------------------------------------------------------
      1          8           0        0.615183   -1.665183    0.000000
      2          8           0       -0.205061   -0.844939    0.000000
      3          8           0       -0.205061    0.675061   -0.000000
      4          8           0       -0.205061    1.835061   -0.000000
 ---------------------------------------------------------------------

 SCF Done:  E(ROHF) =  -299.094474457     A.U. after   25 cycles
 E2 =    -0.9420129596D+00 EUMP2 =    -0.30003648741689D+03
 CCSD(T)
 CCSD(T)= -0.30006558836D+03

 The electronic state is 3-A".
 Alpha  occ. eigenvalues --  -20.75786 -20.74635 -20.72699 -20.66985  -1.77429
 Alpha  occ. eigenvalues --   -1.68575  -1.28211  -1.05212  -0.87135  -0.86605
 Alpha  occ. eigenvalues --   -0.84870  -0.77054  -0.70473  -0.57802  -0.54147
 Alpha  occ. eigenvalues --   -0.52468  -0.41565
 Alpha virt. eigenvalues --    0.08356   0.45781   0.50025   0.64522   0.65295
 Alpha virt. eigenvalues --    0.69552   0.72658   0.72999   0.74641   0.79783
 Alpha virt. eigenvalues --    0.80250   0.82099   0.85955   0.93907   0.97253

 Mulliken charges and spin densities:
               1          2
     1  O   -0.119521   0.012901
     2  O    0.056298   0.023164
     3  O    0.058081   0.914968
     4  O    0.005142   1.048967
 Sum of Mulliken charges =  -0.00000   2.00000

 Dipole moment (field-independent basis, Debye):
    X=             -0.4282    Y=              1.1319    Z=             -0.0000  Tot=              1.2102
 Quadrupole moment (field-independent basis, Debye-Ang):
   XX=            -19.9620   YY=            -21.6079   ZZ=            -20.3186
   XY=              1.2089   XZ=             -0.0000   YZ=              0.0000

 \CCSD=-300.0230227\CCSD(T)=-300.0655884\RMSD=4.738e-09\PG=CS [SG(O4)]\
 Normal termination of Gaussian 16 at Tue Feb 13 12:59:07 2024.
