 Gaussian 16, Revision A.03,
 Gaussian 16:  ES64L-G16RevA.03 25-Dec-2016

 -----------------------------------------------
 #p ROCCSD(T,MaxCyc=200)/cc-pVTZ SCF(MaxCyc=200)
 -----------------------------------------------

 ---------
 O2_O2_101
 ---------
 Symbolic Z-matrix:
 Charge =  0 Multiplicity = 3

                         Standard orientation:
 ---------------------------------------------------------------------
 Center     Atomic      Atomic             Coordinates (Angstroms)
 Number     Number       Type             X           Y           Z
 ---------------------------------------------------------------------
      1          8           0       -0.870000   -1.450000    0.000000
      2          8           0        0.290000   -1.450000    0.000000
      3          8           0        0.290000    0.870000    0.000000
      4          8           0        0.290000    2.030000    0.000000
 ---------------------------------------------------------------------

 SCF Done:  E(ROHF) =  -299.103542583     A.U. after   20 cycles
 E2 =    -0.1088129756D+01 EUMP2 =    -0.30019167233890D+03
 CCSD(T)
 CCSD(T)= -0.30022251604D+03

 The electronic state is 3-A'.
 Alpha  occ. eigenvalues --  -20.76264 -20.76062 -20.75330 -20.74572  -1.74026
 Alpha  occ. eigenvalues --   -1.73037  -1.14706  -1.13306  -0.84988  -0.83879
 Alpha  occ. eigenvalues --   -0.79754  -0.77950  -0.74104  -0.72119  -0.51853
 Alpha  occ. eigenvalues --   -0.50750  -0.31575
 Alpha virt. eigenvalues --   -0.09580   0.41381   0.45582   0.63140   0.67752
 Alpha virt. eigenvalues --    0.70207   0.70738   0.71525   0.73353   0.76528
 Alpha virt. eigenvalues --    0.77719   0.78532   0.84272   0.84618   0.86963

 Mulliken charges and spin densities:
               1          2
     1  O   -0.007386   0.468535
     2  O    0.031227   0.531794
     3  O   -0.020367   0.379941
     4  O   -0.003474   0.619731
 Sum of Mulliken charges =   0.00000   2.00000

 Dipole moment (field-independent basis, Debye):
    X=              0.0480    Y=             -0.1542    Z=              0.0000  Tot=              0.1615
 Quadrupole moment (field-independent basis, Debye-Ang):
   XX=            -20.6691   YY=            -20.1891   ZZ=            -19.6849
   XY=              0.1222   XZ=              0.0000   YZ=              0.0000

 CCSD(T)=-300.222516\RMSD=7.464e-09\PG=CS [SG(O4)]\\@
 Normal termination of Gaussian 16 at Tue Feb 13 15:05:23 2024.
