 Gaussian 16, Revision A.03,
 Gaussian 16:  ES64L-G16RevA.03 25-Dec-2016

 -----------------------------------------------
 #p ROCCSD(T,MaxCyc=200)/cc-pVTZ SCF(MaxCyc=200)
 -----------------------------------------------

 ---------
 O2_O2_122
 ---------
 Symbolic Z-matrix:
 Charge =  0 Multiplicity = 3

                         Standard orientation:
 ---------------------------------------------------------------------
 Center     Atomic      Atomic             Coordinates (Angstroms)
 Number     Number       Type             X           Y           Z
 ---------------------------------------------------------------------
      1          8           0       -0.870000   -1.590000    0.000000
      2          8           0        0.290000   -1.590000    0.000000
      3          8           0        0.290000    1.010000    0.000000
      4          8           0        0.290000    2.170000    0.000000
 ---------------------------------------------------------------------

 SCF Done:  E(ROHF) =  -299.092269177     A.U. after   20 cycles
 E2 =    -0.1114682670D+01 EUMP2 =    -0.30020695184699D+03
 CCSD(T)
 CCSD(T)= -0.30023334161D+03

 The electronic state is 3-A'.
 Alpha  occ. eigenvalues --  -20.76093 -20.75971 -20.75503 -20.74895  -1.73811
 Alpha  occ. eigenvalues --   -1.73221  -1.14270  -1.13543  -0.84746  -0.84095
 Alpha  occ. eigenvalues --   -0.78747  -0.77778  -0.74155  -0.73424  -0.51663
 Alpha  occ. eigenvalues --   -0.50969  -0.30228
 Alpha virt. eigenvalues --   -0.11109   0.41165   0.44156   0.63802   0.65693
 Alpha virt. eigenvalues --    0.68499   0.69775   0.71995   0.75249   0.76136
 Alpha virt. eigenvalues --    0.77787   0.78512   0.81159   0.83416   0.86859

 Mulliken charges and spin densities:
               1          2
     1  O   -0.005599   0.479678
     2  O    0.021779   0.520466
     3  O   -0.020096   0.403733
     4  O    0.003915   0.596123
 Sum of Mulliken charges =   0.00000   2.00000

 Dipole moment (field-independent basis, Debye):
    X=              0.0229    Y=             -0.1145    Z=              0.0000  Tot=              0.1168
 Quadrupole moment (field-independent basis, Debye-Ang):
   XX=            -20.6780   YY=            -20.1264   ZZ=            -19.6926
   XY=              0.0882   XZ=              0.0000   YZ=              0.0000

 Normal termination of Gaussian 16 at Tue Feb 13 15:52:59 2024.
