 Gaussian 16, Revision A.03,
 Gaussian 16:  ES64L-G16RevA.03 25-Dec-2016

 -----------------------------------------------
 #p ROCCSD(T,MaxCyc=200)/cc-pVTZ SCF(MaxCyc=200)
 -----------------------------------------------

 ---------
 O2_O2_281
 ---------
 Symbolic Z-matrix:
 Charge =  0 Multiplicity = 3

                         Standard orientation:
 ---------------------------------------------------------------------
 Center     Atomic      Atomic             Coordinates (Angstroms)
 Number     Number       Type             X           Y           Z
 ---------------------------------------------------------------------
      1          8           0       -0.870000   -2.650000    0.000000
      2          8           0        0.290000   -2.650000    0.000000
      3          8           0        0.290000    2.070000    0.000000
      4          8           0        0.290000    3.230000    0.000000
 ---------------------------------------------------------------------

 SCF Done:  E(ROHF) =  -299.252734293     A.U. after   31 cycles
 E2 =    -0.9206380484D+00 EUMP2 =    -0.30017337234132D+03
 CCSD(T)
 CCSD(T)= -0.30020026656D+03

 The electronic state is 3-A".
 Alpha  occ. eigenvalues --  -20.74009 -20.73933 -20.72985 -20.72869  -1.74509
 Alpha  occ. eigenvalues --   -1.69918  -1.17053  -1.08607  -0.83789  -0.83787
 Alpha  occ. eigenvalues --   -0.78695  -0.78134  -0.75229  -0.67447  -0.50984
 Alpha  occ. eigenvalues --   -0.50982  -0.44864
 Alpha virt. eigenvalues --    0.04911   0.41435   0.43204   0.67903   0.68013
 Alpha virt. eigenvalues --    0.70365   0.70524   0.72067   0.72599   0.78017
 Alpha virt. eigenvalues --    0.79571   0.79795   0.80164   0.82182   0.84673

 Mulliken charges and spin densities:
               1          2
     1  O    0.000053   1.000054
     2  O   -0.000043   0.999945
     3  O   -0.000265   0.000001
     4  O    0.000254  -0.000000
 Sum of Mulliken charges =  -0.00000   2.00000

 Dipole moment (field-independent basis, Debye):
    X=              0.0001    Y=              0.0034    Z=              0.0000  Tot=              0.0034
 Quadrupole moment (field-independent basis, Debye-Ang):
   XX=            -21.1130   YY=            -20.3012   ZZ=            -18.8836
   XY=              0.0013   XZ=              0.0000   YZ=              0.0000

 CCSD(T)=-300.2002666\RMSD=7.216e-09\PG=CS [SG(O4)]\\@
 Normal termination of Gaussian 16 at Tue Feb 13 19:17:35 2024.
