 Gaussian 16, Revision A.03,
 Gaussian 16:  ES64L-G16RevA.03 25-Dec-2016

 -----------------------------------------------
 #p ROCCSD(T,MaxCyc=200)/cc-pVTZ SCF(MaxCyc=200)
 -----------------------------------------------

 ---------
 O2_O2_287
 ---------
 Symbolic Z-matrix:
 Charge =  0 Multiplicity = 3

                         Standard orientation:
 ---------------------------------------------------------------------
 Center     Atomic      Atomic             Coordinates (Angstroms)
 Number     Number       Type             X           Y           Z
 ---------------------------------------------------------------------
      1          8           0       -0.870000   -2.690000    0.000000
      2          8           0        0.290000   -2.690000    0.000000
      3          8           0        0.290000    2.110000    0.000000
      4          8           0        0.290000    3.270000    0.000000
 ---------------------------------------------------------------------

 SCF Done:  E(ROHF) =  -299.252754602     A.U. after   54 cycles
 E2 =    -0.9206375890D+00 EUMP2 =    -0.30017339219069D+03
 CCSD(T)
 CCSD(T)= -0.30020028472D+03

 The electronic state is 3-A".
 Alpha  occ. eigenvalues --  -20.74167 -20.74080 -20.72920 -20.72805  -1.74658
 Alpha  occ. eigenvalues --   -1.69853  -1.17208  -1.08542  -0.83938  -0.83937
 Alpha  occ. eigenvalues --   -0.78631  -0.78293  -0.75163  -0.67381  -0.51135
 Alpha  occ. eigenvalues --   -0.51135  -0.44800
 Alpha virt. eigenvalues --    0.04977   0.41232   0.43306   0.67876   0.67878
 Alpha virt. eigenvalues --    0.70347   0.70425   0.72094   0.72571   0.77886
 Alpha virt. eigenvalues --    0.79643   0.79651   0.79958   0.82228   0.84759

 Mulliken charges and spin densities:
               1          2
     1  O   -0.000097   0.000000
     2  O    0.000106   0.000000
     3  O   -0.001586   0.998245
     4  O    0.001577   1.001755
 Sum of Mulliken charges =  -0.00000   2.00000

 Dipole moment (field-independent basis, Debye):
    X=              0.0014    Y=              0.0132    Z=              0.0000  Tot=              0.0132
 Quadrupole moment (field-independent basis, Debye-Ang):
   XX=            -20.3059   YY=            -19.4272   ZZ=            -20.5131
   XY=              0.0031   XZ=              0.0000   YZ=              0.0000

 Normal termination of Gaussian 16 at Tue Feb 13 19:22:42 2024.
