 Gaussian 16, Revision A.03,
 Gaussian 16:  ES64L-G16RevA.03 25-Dec-2016

 -----------------------------------------------
 #p ROCCSD(T,MaxCyc=200)/cc-pVTZ SCF(MaxCyc=200)
 -----------------------------------------------

 ---------
 O2_O2_256
 ---------
 Symbolic Z-matrix:
 Charge =  0 Multiplicity = 3

                         Standard orientation:
 ---------------------------------------------------------------------
 Center     Atomic      Atomic             Coordinates (Angstroms)
 Number     Number       Type             X           Y           Z
 ---------------------------------------------------------------------
      1          8           0        0.615183   -3.105183    0.000000
      2          8           0       -0.205061   -2.284939    0.000000
      3          8           0       -0.205061    2.115061   -0.000000
      4          8           0       -0.205061    3.275061   -0.000000
 ---------------------------------------------------------------------

 SCF Done:  E(ROHF) =  -299.252741816     A.U. after   25 cycles
 E2 =    -0.9206695975D+00 EUMP2 =    -0.30017341141393D+03
 CCSD(T)
 CCSD(T)= -0.30020029559D+03

 The electronic state is 3-A".
 Alpha  occ. eigenvalues --  -20.74014 -20.73937 -20.72944 -20.72828  -1.74512
 Alpha  occ. eigenvalues --   -1.69878  -1.17056  -1.08564  -0.83793  -0.83791
 Alpha  occ. eigenvalues --   -0.78655  -0.78136  -0.75184  -0.67407  -0.50988
 Alpha  occ. eigenvalues --   -0.50985  -0.44823
 Alpha virt. eigenvalues --    0.04953   0.40673   0.43871   0.67883   0.68009
 Alpha virt. eigenvalues --    0.70397   0.70562   0.71148   0.73227   0.77859
 Alpha virt. eigenvalues --    0.79112   0.79787   0.81439   0.82218   0.84722

 Mulliken charges and spin densities:
               1          2
     1  O   -0.000347   0.999584
     2  O    0.000374   1.000399
     3  O    0.000130   0.000018
     4  O   -0.000156  -0.000000
 Sum of Mulliken charges =  -0.00000   2.00000

 Dipole moment (field-independent basis, Debye):
    X=             -0.0020    Y=              0.0004    Z=             -0.0000  Tot=              0.0020
 Quadrupole moment (field-independent basis, Debye-Ang):
   XX=            -20.8139   YY=            -20.6267   ZZ=            -18.8837
   XY=              0.3031   XZ=              0.0000   YZ=              0.0000

 CCSD=-300.1622295\CCSD(T)=-300.2002956\RMSD=4.193e-09\PG=CS [SG(O4)]\\
 Normal termination of Gaussian 16 at Tue Feb 13 18:51:14 2024.
