 Gaussian 16, Revision A.03,
 Gaussian 16:  ES64L-G16RevA.03 25-Dec-2016

 -----------------------------------------------
 #p ROCCSD(T,MaxCyc=200)/cc-pVTZ SCF(MaxCyc=200)
 -----------------------------------------------

 --------
 O2_O2_50
 --------
 Symbolic Z-matrix:
 Charge =  0 Multiplicity = 3

                         Standard orientation:
 ---------------------------------------------------------------------
 Center     Atomic      Atomic             Coordinates (Angstroms)
 Number     Number       Type             X           Y           Z
 ---------------------------------------------------------------------
      1          8           0       -0.870000   -1.110000    0.000000
      2          8           0        0.290000   -1.110000    0.000000
      3          8           0        0.290000    0.530000    0.000000
      4          8           0        0.290000    1.690000    0.000000
 ---------------------------------------------------------------------

 SCF Done:  E(ROHF) =  -299.123866353     A.U. after   23 cycles
 E2 =    -0.9456626215D+00 EUMP2 =    -0.30006952897410D+03
 CCSD(T)
 CCSD(T)= -0.30009345827D+03

 The electronic state is 3-A".
 Alpha  occ. eigenvalues --  -20.76377 -20.74227 -20.73193 -20.67031  -1.77518
 Alpha  occ. eigenvalues --   -1.69147  -1.22988  -1.07308  -0.86807  -0.86617
 Alpha  occ. eigenvalues --   -0.84774  -0.77196  -0.73368  -0.58000  -0.53235
 Alpha  occ. eigenvalues --   -0.52320  -0.42759
 Alpha virt. eigenvalues --    0.06827   0.43605   0.45928   0.65087   0.65506
 Alpha virt. eigenvalues --    0.67398   0.71109   0.72885   0.74384   0.79863
 Alpha virt. eigenvalues --    0.82546   0.82737   0.86290   0.87614   0.98628

 Mulliken charges and spin densities:
               1          2
     1  O   -0.109203  -0.000156
     2  O    0.061322   0.019489
     3  O    0.030154   0.920768
     4  O    0.017727   1.059898
 Sum of Mulliken charges =  -0.00000   2.00000

 Dipole moment (field-independent basis, Debye):
    X=              0.6601    Y=              0.7365    Z=              0.0000  Tot=              0.9890
 Quadrupole moment (field-independent basis, Debye-Ang):
   XX=            -20.6513   YY=            -19.9289   ZZ=            -20.3569
   XY=             -0.5754   XZ=              0.0000   YZ=              0.0000

 Normal termination of Gaussian 16 at Tue Feb 13 13:17:00 2024.
