 Gaussian 16, Revision A.03,
 Gaussian 16:  ES64L-G16RevA.03 25-Dec-2016

 -----------------------------------------------
 #p ROCCSD(T,MaxCyc=200)/cc-pVTZ SCF(MaxCyc=200)
 -----------------------------------------------

 ---------
 O2_O2_197
 ---------
 Symbolic Z-matrix:
 Charge =  0 Multiplicity = 3

                         Standard orientation:
 ---------------------------------------------------------------------
 Center     Atomic      Atomic             Coordinates (Angstroms)
 Number     Number       Type             X           Y           Z
 ---------------------------------------------------------------------
      1          8           0       -0.870000   -2.090000    0.000000
      2          8           0        0.290000   -2.090000    0.000000
      3          8           0        0.290000    1.510000    0.000000
      4          8           0        0.290000    2.670000    0.000000
 ---------------------------------------------------------------------

 SCF Done:  E(ROHF) =  -299.252875058     A.U. after   27 cycles
 E2 =    -0.9209345005D+00 EUMP2 =    -0.30017380955854D+03
 CCSD(T)
 CCSD(T)= -0.30020064767D+03

 The electronic state is 3-A".
 Alpha  occ. eigenvalues --  -20.74312 -20.74183 -20.72892 -20.72776  -1.74773
 Alpha  occ. eigenvalues --   -1.69818  -1.17337  -1.08507  -0.84054  -0.84054
 Alpha  occ. eigenvalues --   -0.78597  -0.78436  -0.75129  -0.67331  -0.51256
 Alpha  occ. eigenvalues --   -0.51256  -0.44767
 Alpha virt. eigenvalues --    0.05003   0.39770   0.43451   0.64482   0.67610
 Alpha virt. eigenvalues --    0.67642   0.70480   0.72558   0.75133   0.77870
 Alpha virt. eigenvalues --    0.79622   0.80237   0.80880   0.82370   0.86507

 Mulliken charges and spin densities:
               1          2
     1  O   -0.000282   0.000014
     2  O    0.000777   0.000018
     3  O   -0.004799   0.995712
     4  O    0.004304   1.004256
 Sum of Mulliken charges =  -0.00000   2.00000

 Dipole moment (field-independent basis, Debye):
    X=              0.0042    Y=              0.0277    Z=              0.0000  Tot=              0.0280
 Quadrupole moment (field-independent basis, Debye-Ang):
   XX=            -20.3053   YY=            -19.3612   ZZ=            -20.5124
   XY=              0.0087   XZ=              0.0000   YZ=              0.0000

 Normal termination of Gaussian 16 at Tue Feb 13 17:41:40 2024.
