 Gaussian 16, Revision A.03,
 Gaussian 16:  ES64L-G16RevA.03 25-Dec-2016

 -----------------------------------------------
 #p ROCCSD(T,MaxCyc=200)/cc-pVTZ SCF(MaxCyc=200)
 -----------------------------------------------

 --------
 O2_O2_16
 --------
 Symbolic Z-matrix:
 Charge =  0 Multiplicity = 3

                         Standard orientation:
 ---------------------------------------------------------------------
 Center     Atomic      Atomic             Coordinates (Angstroms)
 Number     Number       Type             X           Y           Z
 ---------------------------------------------------------------------
      1          8           0        0.615183   -1.505183    0.000000
      2          8           0       -0.205061   -0.684939    0.000000
      3          8           0       -0.205061    0.515061   -0.000000
      4          8           0       -0.205061    1.675061   -0.000000
 ---------------------------------------------------------------------

 SCF Done:  E(ROHF) =  -298.933703696     A.U. after   22 cycles
 E2 =    -0.9106542162D+00 EUMP2 =    -0.29984435791244D+03
 CCSD(T)
 CCSD(T)= -0.29989393220D+03

 The electronic state is 3-A".
 Alpha  occ. eigenvalues --  -20.84332 -20.72097 -20.71037 -20.67769  -1.85586
 Alpha  occ. eigenvalues --   -1.69758  -1.43607  -1.01927  -0.94305  -0.90842
 Alpha  occ. eigenvalues --   -0.87050  -0.77386  -0.76431  -0.55985  -0.54239
 Alpha  occ. eigenvalues --   -0.47941  -0.40100
 Alpha virt. eigenvalues --    0.16033   0.46029   0.52655   0.64206   0.64362
 Alpha virt. eigenvalues --    0.65152   0.67396   0.73560   0.75337   0.79415
 Alpha virt. eigenvalues --    0.82318   0.84357   0.85932   0.92892   0.97694

 Mulliken charges and spin densities:
               1          2
     1  O   -0.177986   0.563955
     2  O    0.216936   0.353238
     3  O    0.036991   0.328695
     4  O   -0.075941   0.754111
 Sum of Mulliken charges =  -0.00000   2.00000

 Dipole moment (field-independent basis, Debye):
    X=             -0.2899    Y=              0.1936    Z=              0.0000  Tot=              0.3486
 Quadrupole moment (field-independent basis, Debye-Ang):
   XX=            -20.2189   YY=            -23.6335   ZZ=            -19.7512
   XY=              1.0439   XZ=             -0.0000   YZ=              0.0000

 \CCSD=-299.8511354\CCSD(T)=-299.8939322\RMSD=9.907e-09\PG=CS [SG(O4)]\
 Normal termination of Gaussian 16 at Tue Feb 13 12:17:17 2024.
