 Gaussian 16, Revision A.03,
 Gaussian 16:  ES64L-G16RevA.03 25-Dec-2016

 -----------------------------------------------
 #p ROCCSD(T,MaxCyc=200)/cc-pVTZ SCF(MaxCyc=200)
 -----------------------------------------------

 --------
 O2_O2_28
 --------
 Symbolic Z-matrix:
 Charge =  0 Multiplicity = 3

                         Standard orientation:
 ---------------------------------------------------------------------
 Center     Atomic      Atomic             Coordinates (Angstroms)
 Number     Number       Type             X           Y           Z
 ---------------------------------------------------------------------
      1          8           0        0.615183   -1.585183   -0.000000
      2          8           0       -0.205061   -0.764939   -0.000000
      3          8           0       -0.205061    0.595061    0.000000
      4          8           0       -0.205061    1.755061    0.000000
 ---------------------------------------------------------------------

 SCF Done:  E(ROHF) =  -298.996447592     A.U. after   24 cycles
 E2 =    -0.9491807154D+00 EUMP2 =    -0.29994562830697D+03
 CCSD(T)
 CCSD(T)= -0.29998528498D+03

 The electronic state is 3-A".
 Alpha  occ. eigenvalues --  -20.78497 -20.77586 -20.75520 -20.62025  -1.81410
 Alpha  occ. eigenvalues --   -1.69018  -1.35678  -1.04573  -0.91296  -0.90207
 Alpha  occ. eigenvalues --   -0.85319  -0.77230  -0.71863  -0.56044  -0.54531
 Alpha  occ. eigenvalues --   -0.51069  -0.39940
 Alpha virt. eigenvalues --    0.09943   0.45689   0.51577   0.63592   0.63985
 Alpha virt. eigenvalues --    0.67088   0.71069   0.73086   0.74009   0.78853
 Alpha virt. eigenvalues --    0.81800   0.83777   0.87375   0.92980   0.97128

 Mulliken charges and spin densities:
               1          2
     1  O   -0.242599   0.034626
     2  O    0.101516   0.083770
     3  O    0.133358   0.864385
     4  O    0.007725   1.017219
 Sum of Mulliken charges =  -0.00000   2.00000

 Dipole moment (field-independent basis, Debye):
    X=             -0.7738    Y=              2.1016    Z=              0.0000  Tot=              2.2395
 Quadrupole moment (field-independent basis, Debye-Ang):
   XX=            -20.3299   YY=            -22.7061   ZZ=            -20.1825
   XY=              1.6094   XZ=              0.0000   YZ=             -0.0000

 \CCSD=-299.9377414\CCSD(T)=-299.985285\RMSD=5.024e-09\PG=CS [SG(O4)]\\
 Normal termination of Gaussian 16 at Tue Feb 13 12:38:28 2024.
