 Gaussian 16, Revision A.03,
 Gaussian 16:  ES64L-G16RevA.03 25-Dec-2016

 -----------------------------------------------
 #p ROCCSD(T,MaxCyc=200)/cc-pVTZ SCF(MaxCyc=200)
 -----------------------------------------------

 --------
 O2_O2_48
 --------
 Symbolic Z-matrix:
 Charge =  0 Multiplicity = 3

                         Standard orientation:
 ---------------------------------------------------------------------
 Center     Atomic      Atomic             Coordinates (Angstroms)
 Number     Number       Type             X           Y           Z
 ---------------------------------------------------------------------
      1          8           0        0.000000    0.000000    1.980000
      2          8           0        0.000000    0.000000    0.820000
      3          8           0        0.000000    0.000000   -0.820000
      4          8           0        0.000000    0.000000   -1.980000
 ---------------------------------------------------------------------

 SCF Done:  E(ROHF) =  -299.058107370     A.U. after   15 cycles
 E2 =    -0.1031509834D+01 EUMP2 =    -0.30008961720427D+03
 CCSD(T)
 CCSD(T)= -0.30012655825D+03

 Unable to determine electronic state:  an orbital has unidentified symmetry.
 Alpha  occ. eigenvalues --  -20.74620 -20.74614 -20.73327 -20.73327  -1.74251
 Alpha  occ. eigenvalues --   -1.72223  -1.23705  -1.07577  -0.85699  -0.85311
 Alpha  occ. eigenvalues --   -0.82759  -0.76438  -0.71771  -0.64012  -0.54234
 Alpha  occ. eigenvalues --   -0.47303  -0.35372
 Alpha virt. eigenvalues --   -0.03982   0.45620   0.48883   0.65369   0.68109
 Alpha virt. eigenvalues --    0.69953   0.70550   0.72828   0.75764   0.77849
 Alpha virt. eigenvalues --    0.81899   0.84746   0.86384   0.97331   1.00383

 Mulliken charges and spin densities:
               1          2
     1  O   -0.035400   0.687806
     2  O    0.035400   0.312194
     3  O    0.035400   0.312194
     4  O   -0.035400   0.687806
 Sum of Mulliken charges =   0.00000   2.00000

 Dipole moment (field-independent basis, Debye):
    X=              0.0000    Y=              0.0000    Z=              0.0000  Tot=              0.0000
 Quadrupole moment (field-independent basis, Debye-Ang):
   XX=            -20.1325   YY=            -19.5329   ZZ=            -21.3794
   XY=              0.0000   XZ=              0.0000   YZ=              0.0000

 MP2-0=-300.0896172\MP4SDQ=-300.0561007\CCSD=-300.0503357\CCSD(T)=-300.
 Normal termination of Gaussian 16 at Tue Feb 13 13:13:18 2024.
