 Gaussian 16, Revision A.03,
 Gaussian 16:  ES64L-G16RevA.03 25-Dec-2016

 -----------------------------------------------
 #p ROCCSD(T,MaxCyc=200)/cc-pVTZ SCF(MaxCyc=200)
 -----------------------------------------------

 ---------
 O2_O2_121
 ---------
 Symbolic Z-matrix:
 Charge =  0 Multiplicity = 3

                         Standard orientation:
 ---------------------------------------------------------------------
 Center     Atomic      Atomic             Coordinates (Angstroms)
 Number     Number       Type             X           Y           Z
 ---------------------------------------------------------------------
      1          8           0        0.615183   -2.205183    0.000000
      2          8           0       -0.205061   -1.384939    0.000000
      3          8           0       -0.205061    1.215062   -0.000000
      4          8           0       -0.205061    2.375060   -0.000000
 ---------------------------------------------------------------------

 SCF Done:  E(ROHF) =  -299.078339956     A.U. after   19 cycles
 E2 =    -0.1143619083D+01 EUMP2 =    -0.30022195903877D+03
 CCSD(T)
 CCSD(T)= -0.30023894758D+03

 The electronic state is 3-A'.
 Alpha  occ. eigenvalues --  -20.75787 -20.75522 -20.75157 -20.75023  -1.73463
 Alpha  occ. eigenvalues --   -1.73263  -1.14507  -1.12974  -0.84477  -0.84146
 Alpha  occ. eigenvalues --   -0.78759  -0.76419  -0.74668  -0.73681  -0.51356
 Alpha  occ. eigenvalues --   -0.50888  -0.28991
 Alpha virt. eigenvalues --   -0.12187   0.40850   0.46507   0.64501   0.67164
 Alpha virt. eigenvalues --    0.67425   0.70520   0.71713   0.74525   0.77469
 Alpha virt. eigenvalues --    0.79016   0.79198   0.83931   0.86090   0.87649

 Mulliken charges and spin densities:
               1          2
     1  O    0.007119   0.562033
     2  O   -0.002642   0.438137
     3  O   -0.005692   0.424203
     4  O    0.001215   0.575627
 Sum of Mulliken charges =  -0.00000   2.00000

 Dipole moment (field-independent basis, Debye):
    X=              0.0321    Y=             -0.0329    Z=              0.0000  Tot=              0.0459
 Quadrupole moment (field-independent basis, Debye-Ang):
   XX=            -20.0401   YY=            -20.3520   ZZ=            -20.1498
   XY=              0.2949   XZ=              0.0000   YZ=              0.0000

 =-300.1133674\CCSD(T)=-300.2389476\RMSD=6.196e-09\PG=CS [SG(O4)]\\@
 Normal termination of Gaussian 16 at Tue Feb 13 15:50:34 2024.
