 Gaussian 16, Revision A.03,
 Gaussian 16:  ES64L-G16RevA.03 25-Dec-2016

 -----------------------------------------------
 #p ROCCSD(T,MaxCyc=200)/cc-pVTZ SCF(MaxCyc=200)
 -----------------------------------------------

 ---------
 O2_O2_106
 ---------
 Symbolic Z-matrix:
 Charge =  0 Multiplicity = 3

                         Standard orientation:
 ---------------------------------------------------------------------
 Center     Atomic      Atomic             Coordinates (Angstroms)
 Number     Number       Type             X           Y           Z
 ---------------------------------------------------------------------
      1          8           0        0.615183   -2.105183    0.000000
      2          8           0       -0.205061   -1.284939    0.000000
      3          8           0       -0.205061    1.115061    0.000000
      4          8           0       -0.205061    2.275061    0.000000
 ---------------------------------------------------------------------

 SCF Done:  E(ROHF) =  -299.085602339     A.U. after   20 cycles
 E2 =    -0.1122171091D+01 EUMP2 =    -0.30020777342990D+03
 CCSD(T)
 CCSD(T)= -0.30023224004D+03

 The electronic state is 3-A'.
 Alpha  occ. eigenvalues --  -20.75953 -20.75527 -20.75066 -20.74919  -1.73551
 Alpha  occ. eigenvalues --   -1.73228  -1.15027  -1.12585  -0.84672  -0.84117
 Alpha  occ. eigenvalues --   -0.79289  -0.75762  -0.74831  -0.73526  -0.51456
 Alpha  occ. eigenvalues --   -0.50746  -0.29766
 Alpha virt. eigenvalues --   -0.11294   0.41830   0.46908   0.64125   0.66712
 Alpha virt. eigenvalues --    0.68787   0.71139   0.71992   0.74712   0.77748
 Alpha virt. eigenvalues --    0.78992   0.80015   0.84939   0.86342   0.89138

 Mulliken charges and spin densities:
               1          2
     1  O    0.006494   0.570240
     2  O   -0.000054   0.430010
     3  O   -0.002775   0.409897
     4  O   -0.003665   0.589853
 Sum of Mulliken charges =  -0.00000   2.00000

 Dipole moment (field-independent basis, Debye):
    X=              0.0326    Y=             -0.0386    Z=             -0.0000  Tot=              0.0505
 Quadrupole moment (field-independent basis, Debye-Ang):
   XX=            -20.0419   YY=            -20.3583   ZZ=            -20.1738
   XY=              0.3038   XZ=              0.0000   YZ=              0.0000

 SD=-300.1141664\CCSD(T)=-300.23224\RMSD=6.022e-09\PG=CS [SG(O4)]\\@
 Normal termination of Gaussian 16 at Tue Feb 13 15:16:56 2024.
