 Gaussian 16, Revision A.03,
 Gaussian 16:  ES64L-G16RevA.03 25-Dec-2016

 -----------------------------------------------
 #p ROCCSD(T,MaxCyc=200)/cc-pVTZ SCF(MaxCyc=200)
 -----------------------------------------------

 ---------
 O2_O2_284
 ---------
 Symbolic Z-matrix:
 Charge =  0 Multiplicity = 3

                         Standard orientation:
 ---------------------------------------------------------------------
 Center     Atomic      Atomic             Coordinates (Angstroms)
 Number     Number       Type             X           Y           Z
 ---------------------------------------------------------------------
      1          8           0       -0.870000   -2.670000    0.000000
      2          8           0        0.290000   -2.670000    0.000000
      3          8           0        0.290000    2.090000    0.000000
      4          8           0        0.290000    3.250000    0.000000
 ---------------------------------------------------------------------

 SCF Done:  E(ROHF) =  -299.252756182     A.U. after   54 cycles
 E2 =    -0.9206402775D+00 EUMP2 =    -0.30017339645917D+03
 CCSD(T)
 CCSD(T)= -0.30020028837D+03

 The electronic state is 3-A".
 Alpha  occ. eigenvalues --  -20.74170 -20.74082 -20.72920 -20.72804  -1.74660
 Alpha  occ. eigenvalues --   -1.69853  -1.17211  -1.08541  -0.83940  -0.83940
 Alpha  occ. eigenvalues --   -0.78630  -0.78295  -0.75163  -0.67380  -0.51138
 Alpha  occ. eigenvalues --   -0.51138  -0.44799
 Alpha virt. eigenvalues --    0.04978   0.41224   0.43307   0.67873   0.67876
 Alpha virt. eigenvalues --    0.70296   0.70426   0.72133   0.72573   0.77891
 Alpha virt. eigenvalues --    0.79639   0.79648   0.79960   0.82229   0.84765

 Mulliken charges and spin densities:
               1          2
     1  O   -0.000099   0.000000
     2  O    0.000110   0.000000
     3  O   -0.001631   0.998197
     4  O    0.001620   1.001803
 Sum of Mulliken charges =  -0.00000   2.00000

 Dipole moment (field-independent basis, Debye):
    X=              0.0015    Y=              0.0135    Z=              0.0000  Tot=              0.0136
 Quadrupole moment (field-independent basis, Debye-Ang):
   XX=            -20.3059   YY=            -19.4259   ZZ=            -20.5131
   XY=              0.0032   XZ=              0.0000   YZ=              0.0000

 CCSD(T)=-300.2002884\RMSD=1.441e-09\PG=CS [SG(O4)]\\@
 Normal termination of Gaussian 16 at Tue Feb 13 19:19:25 2024.
