 Gaussian 16, Revision A.03,
 Gaussian 16:  ES64L-G16RevA.03 25-Dec-2016

 -----------------------------------------------
 #p ROCCSD(T,MaxCyc=200)/cc-pVTZ SCF(MaxCyc=200)
 -----------------------------------------------

 ---------
 O2_O2_148
 ---------
 Symbolic Z-matrix:
 Charge =  0 Multiplicity = 3

                         Standard orientation:
 ---------------------------------------------------------------------
 Center     Atomic      Atomic             Coordinates (Angstroms)
 Number     Number       Type             X           Y           Z
 ---------------------------------------------------------------------
      1          8           0        0.615183   -2.385183   -0.000000
      2          8           0       -0.205061   -1.564939    0.000000
      3          8           0       -0.205061    1.395061    0.000000
      4          8           0       -0.205061    2.555061    0.000000
 ---------------------------------------------------------------------

 SCF Done:  E(ROHF) =  -299.252246219     A.U. after   27 cycles
 E2 =    -0.9215365169D+00 EUMP2 =    -0.30017378273626D+03
 CCSD(T)
 CCSD(T)= -0.30020055171D+03

 The electronic state is 3-A".
 Alpha  occ. eigenvalues --  -20.73937 -20.73855 -20.72898 -20.72782  -1.74444
 Alpha  occ. eigenvalues --   -1.69846  -1.17005  -1.08535  -0.83745  -0.83726
 Alpha  occ. eigenvalues --   -0.78620  -0.78155  -0.75047  -0.67374  -0.50919
 Alpha  occ. eigenvalues --   -0.50906  -0.44782
 Alpha virt. eigenvalues --    0.04978   0.38967   0.46553   0.64715   0.67026
 Alpha virt. eigenvalues --    0.67905   0.70872   0.71421   0.75162   0.77827
 Alpha virt. eigenvalues --    0.78505   0.79321   0.84423   0.86204   0.87508

 Mulliken charges and spin densities:
               1          2
     1  O   -0.000923   0.998314
     2  O    0.001037   1.001496
     3  O    0.000324   0.000078
     4  O   -0.000439   0.000113
 Sum of Mulliken charges =  -0.00000   2.00000

 Dipole moment (field-independent basis, Debye):
    X=             -0.0082    Y=              0.0045    Z=              0.0000  Tot=              0.0093
 Quadrupole moment (field-independent basis, Debye-Ang):
   XX=            -20.8171   YY=            -20.6881   ZZ=            -18.8849
   XY=              0.3123   XZ=              0.0000   YZ=             -0.0000

 SD=-300.162382\CCSD(T)=-300.2005517\RMSD=3.030e-09\PG=CS [SG(O4)]\\@
 Normal termination of Gaussian 16 at Tue Feb 13 16:41:56 2024.
