 Gaussian 16, Revision A.03,
 Gaussian 16:  ES64L-G16RevA.03 25-Dec-2016

 -----------------------------------------------
 #p ROCCSD(T,MaxCyc=200)/cc-pVTZ SCF(MaxCyc=200)
 -----------------------------------------------

 ---------
 O2_O2_124
 ---------
 Symbolic Z-matrix:
 Charge =  0 Multiplicity = 3

                         Standard orientation:
 ---------------------------------------------------------------------
 Center     Atomic      Atomic             Coordinates (Angstroms)
 Number     Number       Type             X           Y           Z
 ---------------------------------------------------------------------
      1          8           0        0.615183   -2.225183    0.000000
      2          8           0       -0.205061   -1.404939    0.000000
      3          8           0       -0.205061    1.235061   -0.000000
      4          8           0       -0.205061    2.395061   -0.000000
 ---------------------------------------------------------------------

 SCF Done:  E(ROHF) =  -299.076909024     A.U. after   19 cycles
 E2 =    -0.1147837667D+01 EUMP2 =    -0.30022474669168D+03
 CCSD(T)
 CCSD(T)= -0.30024000890D+03

 The electronic state is 3-A'.
 Alpha  occ. eigenvalues --  -20.75757 -20.75514 -20.75167 -20.75037  -1.73448
 Alpha  occ. eigenvalues --   -1.73266  -1.14431  -1.13032  -0.84448  -0.84149
 Alpha  occ. eigenvalues --   -0.78670  -0.76517  -0.74641  -0.73705  -0.51338
 Alpha  occ. eigenvalues --   -0.50907  -0.28855
 Alpha virt. eigenvalues --   -0.12341   0.40632   0.46434   0.64559   0.67163
 Alpha virt. eigenvalues --    0.67279   0.70424   0.71657   0.74503   0.77419
 Alpha virt. eigenvalues --    0.78988   0.79058   0.83891   0.85989   0.87470

 Mulliken charges and spin densities:
               1          2
     1  O    0.007088   0.560364
     2  O   -0.002920   0.439778
     3  O   -0.006088   0.426642
     4  O    0.001919   0.573216
 Sum of Mulliken charges =  -0.00000   2.00000

 Dipole moment (field-independent basis, Debye):
    X=              0.0315    Y=             -0.0319    Z=             -0.0000  Tot=              0.0448
 Quadrupole moment (field-independent basis, Debye-Ang):
   XX=            -20.0400   YY=            -20.3560   ZZ=            -20.1450
   XY=              0.2946   XZ=             -0.0000   YZ=              0.0000

 CCSD=-300.1131004\CCSD(T)=-300.2400089\RMSD=7.858e-09\PG=CS [SG(O4)]\\
 Normal termination of Gaussian 16 at Tue Feb 13 15:56:56 2024.
