 Gaussian 16, Revision A.03,
 Gaussian 16:  ES64L-G16RevA.03 25-Dec-2016

 -----------------------------------------------
 #p ROCCSD(T,MaxCyc=200)/cc-pVTZ SCF(MaxCyc=200)
 -----------------------------------------------

 -------
 O2_O2_2
 -------
 Symbolic Z-matrix:
 Charge =  0 Multiplicity = 3

                         Standard orientation:
 ---------------------------------------------------------------------
 Center     Atomic      Atomic             Coordinates (Angstroms)
 Number     Number       Type             X           Y           Z
 ---------------------------------------------------------------------
      1          8           0       -0.870000   -0.790000    0.000000
      2          8           0        0.290000   -0.790000    0.000000
      3          8           0        0.290000    0.210000    0.000000
      4          8           0        0.290000    1.370000    0.000000
 ---------------------------------------------------------------------

 SCF Done:  E(ROHF) =  -298.675731843     A.U. after   27 cycles
 E2 =    -0.9197240093D+00 EUMP2 =    -0.29959545585198D+03
 CCSD(T)
 CCSD(T)= -0.29962502085D+03

 The electronic state is 3-A".
 Alpha  occ. eigenvalues --  -20.88097 -20.85754 -20.67141 -20.60516  -2.17108
 Alpha  occ. eigenvalues --   -1.70037  -1.47241  -1.14129  -1.12853  -0.94865
 Alpha  occ. eigenvalues --   -0.88625  -0.74656  -0.74229  -0.56268  -0.52778
 Alpha  occ. eigenvalues --   -0.44507  -0.41216
 Alpha virt. eigenvalues --    0.27599   0.39159   0.45466   0.60089   0.60220
 Alpha virt. eigenvalues --    0.63433   0.70168   0.73159   0.74089   0.79702
 Alpha virt. eigenvalues --    0.80321   0.86364   0.86741   0.91341   0.99715

 Mulliken charges and spin densities:
               1          2
     1  O   -0.401965   0.438733
     2  O    0.230867   0.365552
     3  O    0.441506   0.813618
     4  O   -0.270408   0.382097
 Sum of Mulliken charges =  -0.00000   2.00000

 Dipole moment (field-independent basis, Debye):
    X=              2.0301    Y=             -0.8430    Z=              0.0000  Tot=              2.1982
 Quadrupole moment (field-independent basis, Debye-Ang):
   XX=            -21.2360   YY=            -22.9486   ZZ=            -19.4913
   XY=             -1.8483   XZ=              0.0000   YZ=              0.0000

 Normal termination of Gaussian 16 at Tue Feb 13 11:54:56 2024.
