 Gaussian 16, Revision A.03,
 Gaussian 16:  ES64L-G16RevA.03 25-Dec-2016

 -----------------------------------------------
 #p ROCCSD(T,MaxCyc=200)/cc-pVTZ SCF(MaxCyc=200)
 -----------------------------------------------

 ---------
 O2_O2_214
 ---------
 Symbolic Z-matrix:
 Charge =  0 Multiplicity = 3

                         Standard orientation:
 ---------------------------------------------------------------------
 Center     Atomic      Atomic             Coordinates (Angstroms)
 Number     Number       Type             X           Y           Z
 ---------------------------------------------------------------------
      1          8           0        0.615183   -2.825183    0.000000
      2          8           0       -0.205061   -2.004939    0.000000
      3          8           0       -0.205061    1.835061   -0.000000
      4          8           0       -0.205061    2.995061   -0.000000
 ---------------------------------------------------------------------

 SCF Done:  E(ROHF) =  -299.252771621     A.U. after   27 cycles
 E2 =    -0.9208036805D+00 EUMP2 =    -0.30017357530152D+03
 CCSD(T)
 CCSD(T)= -0.30020043536D+03

 The electronic state is 3-A".
 Alpha  occ. eigenvalues --  -20.74008 -20.73930 -20.72936 -20.72820  -1.74504
 Alpha  occ. eigenvalues --   -1.69870  -1.17046  -1.08555  -0.83785  -0.83780
 Alpha  occ. eigenvalues --   -0.78647  -0.78128  -0.75172  -0.67399  -0.50980
 Alpha  occ. eigenvalues --   -0.50973  -0.44814
 Alpha virt. eigenvalues --    0.04961   0.38825   0.45045   0.66592   0.67980
 Alpha virt. eigenvalues --    0.69593   0.70488   0.70576   0.74241   0.77799
 Alpha virt. eigenvalues --    0.78717   0.79704   0.82381   0.84864   0.85398

 Mulliken charges and spin densities:
               1          2
     1  O   -0.000172   0.999494
     2  O    0.000320   1.000405
     3  O   -0.000233   0.000100
     4  O    0.000086   0.000001
 Sum of Mulliken charges =  -0.00000   2.00000

 Dipole moment (field-independent basis, Debye):
    X=             -0.0026    Y=             -0.0017    Z=              0.0000  Tot=              0.0031
 Quadrupole moment (field-independent basis, Debye-Ang):
   XX=            -20.8138   YY=            -20.6288   ZZ=            -18.8840
   XY=              0.3036   XZ=              0.0000   YZ=             -0.0000

 CCSD=-300.1623542\CCSD(T)=-300.2004354\RMSD=3.244e-09\PG=CS [SG(O4)]\\
 Normal termination of Gaussian 16 at Tue Feb 13 18:01:46 2024.
