 Gaussian 16, Revision A.03,
 Gaussian 16:  ES64L-G16RevA.03 25-Dec-2016

 -----------------------------------------------
 #p ROCCSD(T,MaxCyc=200)/cc-pVTZ SCF(MaxCyc=200)
 -----------------------------------------------

 ---------
 O2_O2_227
 ---------
 Symbolic Z-matrix:
 Charge =  0 Multiplicity = 3

                         Standard orientation:
 ---------------------------------------------------------------------
 Center     Atomic      Atomic             Coordinates (Angstroms)
 Number     Number       Type             X           Y           Z
 ---------------------------------------------------------------------
      1          8           0       -0.870000   -2.290000    0.000000
      2          8           0        0.290000   -2.290000    0.000000
      3          8           0        0.290000    1.710000    0.000000
      4          8           0        0.290000    2.870000    0.000000
 ---------------------------------------------------------------------

 SCF Done:  E(ROHF) =  -299.252774999     A.U. after   32 cycles
 E2 =    -0.9207650887D+00 EUMP2 =    -0.30017354008782D+03
 CCSD(T)
 CCSD(T)= -0.30020041259D+03

 The electronic state is 3-A".
 Alpha  occ. eigenvalues --  -20.73995 -20.73919 -20.72999 -20.72883  -1.74492
 Alpha  occ. eigenvalues --   -1.69931  -1.17036  -1.08622  -0.83774  -0.83766
 Alpha  occ. eigenvalues --   -0.78707  -0.78118  -0.75243  -0.67460  -0.50969
 Alpha  occ. eigenvalues --   -0.50963  -0.44877
 Alpha virt. eigenvalues --    0.04897   0.41330   0.42711   0.66049   0.67988
 Alpha virt. eigenvalues --    0.70294   0.70538   0.72093   0.74040   0.77984
 Alpha virt. eigenvalues --    0.78887   0.79803   0.81255   0.82856   0.84682

 Mulliken charges and spin densities:
               1          2
     1  O    0.000288   1.000325
     2  O   -0.000138   0.999654
     3  O   -0.000691   0.000021
     4  O    0.000541   0.000001
 Sum of Mulliken charges =  -0.00000   2.00000

 Dipole moment (field-independent basis, Debye):
    X=             -0.0007    Y=              0.0040    Z=              0.0000  Tot=              0.0040
 Quadrupole moment (field-independent basis, Debye-Ang):
   XX=            -21.1119   YY=            -20.2925   ZZ=            -18.8838
   XY=              0.0043   XZ=              0.0000   YZ=              0.0000

 Normal termination of Gaussian 16 at Tue Feb 13 18:18:11 2024.
