 Gaussian 16, Revision A.03,
 Gaussian 16:  ES64L-G16RevA.03 25-Dec-2016

 -----------------------------------------------
 #p ROCCSD(T,MaxCyc=200)/cc-pVTZ SCF(MaxCyc=200)
 -----------------------------------------------

 ---------
 O2_O2_224
 ---------
 Symbolic Z-matrix:
 Charge =  0 Multiplicity = 3

                         Standard orientation:
 ---------------------------------------------------------------------
 Center     Atomic      Atomic             Coordinates (Angstroms)
 Number     Number       Type             X           Y           Z
 ---------------------------------------------------------------------
      1          8           0       -0.870000   -2.270000    0.000000
      2          8           0        0.290000   -2.270000    0.000000
      3          8           0        0.290000    1.690000    0.000000
      4          8           0        0.290000    2.850000    0.000000
 ---------------------------------------------------------------------

 SCF Done:  E(ROHF) =  -299.252778494     A.U. after   32 cycles
 E2 =    -0.9207787848D+00 EUMP2 =    -0.30017355727866D+03
 CCSD(T)
 CCSD(T)= -0.30020042770D+03

 The electronic state is 3-A".
 Alpha  occ. eigenvalues --  -20.73994 -20.73918 -20.73000 -20.72884  -1.74491
 Alpha  occ. eigenvalues --   -1.69932  -1.17034  -1.08623  -0.83773  -0.83765
 Alpha  occ. eigenvalues --   -0.78708  -0.78117  -0.75244  -0.67461  -0.50968
 Alpha  occ. eigenvalues --   -0.50962  -0.44878
 Alpha virt. eigenvalues --    0.04896   0.41307   0.42656   0.65848   0.67980
 Alpha virt. eigenvalues --    0.70279   0.70543   0.72096   0.74183   0.77975
 Alpha virt. eigenvalues --    0.78841   0.79802   0.81315   0.82984   0.84686

 Mulliken charges and spin densities:
               1          2
     1  O    0.000308   1.000349
     2  O   -0.000142   0.999627
     3  O   -0.000744   0.000023
     4  O    0.000578   0.000001
 Sum of Mulliken charges =  -0.00000   2.00000

 Dipole moment (field-independent basis, Debye):
    X=             -0.0008    Y=              0.0040    Z=              0.0000  Tot=              0.0040
 Quadrupole moment (field-independent basis, Debye-Ang):
   XX=            -21.1118   YY=            -20.2918   ZZ=            -18.8838
   XY=              0.0045   XZ=              0.0000   YZ=              0.0000

 CCSD(T)=-300.2004277\RMSD=1.264e-09\PG=CS [SG(O4)]\\@
 Normal termination of Gaussian 16 at Tue Feb 13 18:14:41 2024.
