 Gaussian 16, Revision A.03,
 Gaussian 16:  ES64L-G16RevA.03 25-Dec-2016

 -----------------------------------------------
 #p ROCCSD(T,MaxCyc=200)/cc-pVTZ SCF(MaxCyc=200)
 -----------------------------------------------

 --------
 O2_O2_42
 --------
 Symbolic Z-matrix:
 Charge =  0 Multiplicity = 3

                         Standard orientation:
 ---------------------------------------------------------------------
 Center     Atomic      Atomic             Coordinates (Angstroms)
 Number     Number       Type             X           Y           Z
 ---------------------------------------------------------------------
      1          8           0        0.000000    0.000000    1.940000
      2          8           0        0.000000    0.000000    0.780000
      3          8           0        0.000000    0.000000   -0.780000
      4          8           0        0.000000    0.000000   -1.940000
 ---------------------------------------------------------------------

 SCF Done:  E(ROHF) =  -298.998154897     A.U. after   13 cycles
 E2 =    -0.1058354737D+01 EUMP2 =    -0.30005650963424D+03
 CCSD(T)
 CCSD(T)= -0.30006002917D+03

 Unable to determine electronic state:  an orbital has unidentified symmetry.
 Alpha  occ. eigenvalues --  -20.76610 -20.76605 -20.72068 -20.72067  -1.75278
 Alpha  occ. eigenvalues --   -1.72247  -1.27253  -1.06512  -0.85838  -0.85142
 Alpha  occ. eigenvalues --   -0.80307  -0.79658  -0.73248  -0.62296  -0.51769
 Alpha  occ. eigenvalues --   -0.44708  -0.37220
 Alpha virt. eigenvalues --   -0.07028   0.45704   0.49325   0.65657   0.66261
 Alpha virt. eigenvalues --    0.69304   0.72189   0.72271   0.74613   0.80129
 Alpha virt. eigenvalues --    0.81234   0.84001   0.87323   0.97847   0.98975

 Mulliken charges and spin densities:
               1          2
     1  O   -0.090405   0.471244
     2  O    0.090405   0.528756
     3  O    0.090405   0.528756
     4  O   -0.090405   0.471244
 Sum of Mulliken charges =   0.00000   2.00000

 Dipole moment (field-independent basis, Debye):
    X=             -0.0000    Y=             -0.0000    Z=              0.0000  Tot=              0.0000
 Quadrupole moment (field-independent basis, Debye-Ang):
   XX=            -20.6042   YY=            -19.0446   ZZ=            -23.0501
   XY=              0.0000   XZ=              0.0000   YZ=              0.0000

 MP2-0=-300.0565096\MP4SDQ=-299.9988027\CCSD=-299.9922335\CCSD(T)=-300.
 Normal termination of Gaussian 16 at Tue Feb 13 13:03:00 2024.
