 Gaussian 16, Revision A.03,
 Gaussian 16:  ES64L-G16RevA.03 25-Dec-2016

 -----------------------------------------------
 #p ROCCSD(T,MaxCyc=200)/cc-pVTZ SCF(MaxCyc=200)
 -----------------------------------------------

 ---------
 O2_O2_301
 ---------
 Symbolic Z-matrix:
 Charge =  0 Multiplicity = 3

                         Standard orientation:
 ---------------------------------------------------------------------
 Center     Atomic      Atomic             Coordinates (Angstroms)
 Number     Number       Type             X           Y           Z
 ---------------------------------------------------------------------
      1          8           0        0.615183   -3.405183    0.000000
      2          8           0       -0.205061   -2.584939    0.000000
      3          8           0       -0.205061    2.415061    0.000000
      4          8           0       -0.205061    3.575061    0.000000
 ---------------------------------------------------------------------

 SCF Done:  E(ROHF) =  -299.252728507     A.U. after   40 cycles
 E2 =    -0.9206202434D+00 EUMP2 =    -0.30017334875009D+03
 CCSD(T)
 CCSD(T)= -0.30020024431D+03

 The electronic state is 3-A".
 Alpha  occ. eigenvalues --  -20.74021 -20.73945 -20.72949 -20.72833  -1.74521
 Alpha  occ. eigenvalues --   -1.69883  -1.17065  -1.08570  -0.83801  -0.83800
 Alpha  occ. eigenvalues --   -0.78660  -0.78146  -0.75190  -0.67412  -0.50996
 Alpha  occ. eigenvalues --   -0.50995  -0.44828
 Alpha virt. eigenvalues --    0.04947   0.41366   0.43337   0.68003   0.68004
 Alpha virt. eigenvalues --    0.70397   0.70557   0.71973   0.72619   0.77994
 Alpha virt. eigenvalues --    0.79610   0.79785   0.80152   0.82203   0.84709

 Mulliken charges and spin densities:
               1          2
     1  O   -0.000293   0.999677
     2  O    0.000295   1.000322
     3  O    0.000120   0.000001
     4  O   -0.000122  -0.000000
 Sum of Mulliken charges =  -0.00000   2.00000

 Dipole moment (field-independent basis, Debye):
    X=             -0.0015    Y=              0.0008    Z=              0.0000  Tot=              0.0017
 Quadrupole moment (field-independent basis, Debye-Ang):
   XX=            -20.8138   YY=            -20.6232   ZZ=            -18.8836
   XY=              0.3026   XZ=             -0.0000   YZ=              0.0000

 \CCSD=-300.1621829\CCSD(T)=-300.2002443\RMSD=3.065e-09\PG=CS [SG(O4)]\
 Normal termination of Gaussian 16 at Tue Feb 13 19:36:14 2024.
