 Gaussian 16, Revision A.03,
 Gaussian 16:  ES64L-G16RevA.03 25-Dec-2016

 -----------------------------------------------
 #p ROCCSD(T,MaxCyc=200)/cc-pVTZ SCF(MaxCyc=200)
 -----------------------------------------------

 ---------
 O2_O2_245
 ---------
 Symbolic Z-matrix:
 Charge =  0 Multiplicity = 3

                         Standard orientation:
 ---------------------------------------------------------------------
 Center     Atomic      Atomic             Coordinates (Angstroms)
 Number     Number       Type             X           Y           Z
 ---------------------------------------------------------------------
      1          8           0       -0.870000   -2.410000    0.000000
      2          8           0        0.290000   -2.410000    0.000000
      3          8           0        0.290000    1.830000    0.000000
      4          8           0        0.290000    2.990000    0.000000
 ---------------------------------------------------------------------

 SCF Done:  E(ROHF) =  -299.252755618     A.U. after   28 cycles
 E2 =    -0.9207017292D+00 EUMP2 =    -0.30017345734753D+03
 CCSD(T)
 CCSD(T)= -0.30020034029D+03

 The electronic state is 3-A".
 Alpha  occ. eigenvalues --  -20.74000 -20.73924 -20.72993 -20.72877  -1.74498
 Alpha  occ. eigenvalues --   -1.69926  -1.17042  -1.08616  -0.83779  -0.83774
 Alpha  occ. eigenvalues --   -0.78702  -0.78124  -0.75238  -0.67455  -0.50974
 Alpha  occ. eigenvalues --   -0.50970  -0.44872
 Alpha virt. eigenvalues --    0.04903   0.41408   0.42984   0.67055   0.68011
 Alpha virt. eigenvalues --    0.70344   0.70524   0.72079   0.73277   0.78012
 Alpha virt. eigenvalues --    0.79160   0.79802   0.80818   0.82378   0.84671

 Mulliken charges and spin densities:
               1          2
     1  O    0.000181   1.000198
     2  O   -0.000108   0.999793
     3  O   -0.000463   0.000010
     4  O    0.000390   0.000000
 Sum of Mulliken charges =  -0.00000   2.00000

 Dipole moment (field-independent basis, Debye):
    X=             -0.0003    Y=              0.0039    Z=              0.0000  Tot=              0.0039
 Quadrupole moment (field-independent basis, Debye-Ang):
   XX=            -21.1124   YY=            -20.2966   ZZ=            -18.8837
   XY=              0.0030   XZ=              0.0000   YZ=              0.0000

 Normal termination of Gaussian 16 at Tue Feb 13 18:39:09 2024.
