 Gaussian 16, Revision A.03,
 Gaussian 16:  ES64L-G16RevA.03 25-Dec-2016

 -----------------------------------------------
 #p ROCCSD(T,MaxCyc=200)/cc-pVTZ SCF(MaxCyc=200)
 -----------------------------------------------

 ---------
 O2_O2_118
 ---------
 Symbolic Z-matrix:
 Charge =  0 Multiplicity = 3

                         Standard orientation:
 ---------------------------------------------------------------------
 Center     Atomic      Atomic             Coordinates (Angstroms)
 Number     Number       Type             X           Y           Z
 ---------------------------------------------------------------------
      1          8           0        0.615183   -2.185183    0.000000
      2          8           0       -0.205061   -1.364939    0.000000
      3          8           0       -0.205061    1.195061    0.000000
      4          8           0       -0.205061    2.355061    0.000000
 ---------------------------------------------------------------------

 SCF Done:  E(ROHF) =  -299.079789113     A.U. after   20 cycles
 E2 =    -0.1139374908D+01 EUMP2 =    -0.30021916402068D+03
 CCSD(T)
 CCSD(T)= -0.30023780642D+03

 The electronic state is 3-A'.
 Alpha  occ. eigenvalues --  -20.75818 -20.75528 -20.75145 -20.75008  -1.73479
 Alpha  occ. eigenvalues --   -1.73259  -1.14592  -1.12910  -0.84509  -0.84142
 Alpha  occ. eigenvalues --   -0.78852  -0.76311  -0.74697  -0.73655  -0.51376
 Alpha  occ. eigenvalues --   -0.50867  -0.29134
 Alpha virt. eigenvalues --   -0.12025   0.41062   0.46583   0.64432   0.67056
 Alpha virt. eigenvalues --    0.67704   0.70624   0.71769   0.74552   0.77521
 Alpha virt. eigenvalues --    0.78985   0.79410   0.83996   0.86170   0.87873

 Mulliken charges and spin densities:
               1          2
     1  O    0.007113   0.563710
     2  O   -0.002295   0.436485
     3  O   -0.005235   0.421630
     4  O    0.000417   0.578174
 Sum of Mulliken charges =  -0.00000   2.00000

 Dipole moment (field-independent basis, Debye):
    X=              0.0326    Y=             -0.0340    Z=              0.0000  Tot=              0.0471
 Quadrupole moment (field-independent basis, Debye-Ang):
   XX=            -20.0403   YY=            -20.3494   ZZ=            -20.1546
   XY=              0.2956   XZ=             -0.0000   YZ=             -0.0000

 CSD=-300.1136109\CCSD(T)=-300.2378064\RMSD=2.275e-09\PG=CS [SG(O4)]\\@
 Normal termination of Gaussian 16 at Tue Feb 13 15:44:05 2024.
