 Gaussian 16, Revision A.03,
 Gaussian 16:  ES64L-G16RevA.03 25-Dec-2016

 -----------------------------------------------
 #p ROCCSD(T,MaxCyc=200)/cc-pVTZ SCF(MaxCyc=200)
 -----------------------------------------------

 ---------
 O2_O2_109
 ---------
 Symbolic Z-matrix:
 Charge =  0 Multiplicity = 3

                         Standard orientation:
 ---------------------------------------------------------------------
 Center     Atomic      Atomic             Coordinates (Angstroms)
 Number     Number       Type             X           Y           Z
 ---------------------------------------------------------------------
      1          8           0        0.615183   -2.125183    0.000000
      2          8           0       -0.205061   -1.304939    0.000000
      3          8           0       -0.205061    1.135062   -0.000000
      4          8           0       -0.205061    2.295060   -0.000000
 ---------------------------------------------------------------------

 SCF Done:  E(ROHF) =  -299.084167862     A.U. after   20 cycles
 E2 =    -0.1126501500D+01 EUMP2 =    -0.30021066936155D+03
 CCSD(T)
 CCSD(T)= -0.30023380744D+03

 The electronic state is 3-A'.
 Alpha  occ. eigenvalues --  -20.75918 -20.75531 -20.75091 -20.74946  -1.73531
 Alpha  occ. eigenvalues --   -1.73239  -1.14901  -1.12677  -0.84625  -0.84125
 Alpha  occ. eigenvalues --   -0.79171  -0.75919  -0.74794  -0.73563  -0.51436
 Alpha  occ. eigenvalues --   -0.50782  -0.29597
 Alpha virt. eigenvalues --   -0.11490   0.41650   0.46825   0.64199   0.66782
 Alpha virt. eigenvalues --    0.68539   0.70996   0.71936   0.74666   0.77689
 Alpha virt. eigenvalues --    0.78970   0.79932   0.84564   0.86307   0.88779

 Mulliken charges and spin densities:
               1          2
     1  O    0.006760   0.568669
     2  O   -0.000768   0.431579
     3  O   -0.003469   0.413066
     4  O   -0.002523   0.586686
 Sum of Mulliken charges =  -0.00000   2.00000

 Dipole moment (field-independent basis, Debye):
    X=              0.0330    Y=             -0.0374    Z=              0.0000  Tot=              0.0499
 Quadrupole moment (field-independent basis, Debye-Ang):
   XX=            -20.0413   YY=            -20.3526   ZZ=            -20.1691
   XY=              0.3008   XZ=             -0.0000   YZ=              0.0000

 3\CCSD=-300.114113\CCSD(T)=-300.2338074\RMSD=4.874e-09\PG=CS [SG(O4)]\
 Normal termination of Gaussian 16 at Tue Feb 13 15:23:23 2024.
