 Gaussian 16, Revision A.03,
 Gaussian 16:  ES64L-G16RevA.03 25-Dec-2016

 -----------------------------------------------
 #p ROCCSD(T,MaxCyc=200)/cc-pVTZ SCF(MaxCyc=200)
 -----------------------------------------------

 ---------
 O2_O2_247
 ---------
 Symbolic Z-matrix:
 Charge =  0 Multiplicity = 3

                         Standard orientation:
 ---------------------------------------------------------------------
 Center     Atomic      Atomic             Coordinates (Angstroms)
 Number     Number       Type             X           Y           Z
 ---------------------------------------------------------------------
      1          8           0        0.615183   -3.045183    0.000000
      2          8           0       -0.205061   -2.224939   -0.000000
      3          8           0       -0.205061    2.055061   -0.000000
      4          8           0       -0.205061    3.215061   -0.000000
 ---------------------------------------------------------------------

 SCF Done:  E(ROHF) =  -299.252747962     A.U. after   25 cycles
 E2 =    -0.9206879091D+00 EUMP2 =    -0.30017343587126D+03
 CCSD(T)
 CCSD(T)= -0.30020031663D+03

 The electronic state is 3-A".
 Alpha  occ. eigenvalues --  -20.74012 -20.73935 -20.72942 -20.72826  -1.74511
 Alpha  occ. eigenvalues --   -1.69877  -1.17054  -1.08563  -0.83791  -0.83788
 Alpha  occ. eigenvalues --   -0.78653  -0.78135  -0.75182  -0.67405  -0.50986
 Alpha  occ. eigenvalues --   -0.50983  -0.44821
 Alpha virt. eigenvalues --    0.04954   0.40361   0.44088   0.67779   0.68008
 Alpha virt. eigenvalues --    0.70388   0.70564   0.70826   0.73438   0.77809
 Alpha virt. eigenvalues --    0.79012   0.79784   0.82017   0.82233   0.84731

 Mulliken charges and spin densities:
               1          2
     1  O   -0.000336   0.999571
     2  O    0.000377   1.000402
     3  O    0.000105   0.000028
     4  O   -0.000146  -0.000000
 Sum of Mulliken charges =  -0.00000   2.00000

 Dipole moment (field-independent basis, Debye):
    X=             -0.0021    Y=              0.0001    Z=              0.0000  Tot=              0.0021
 Quadrupole moment (field-independent basis, Debye-Ang):
   XX=            -20.8139   YY=            -20.6271   ZZ=            -18.8838
   XY=              0.3031   XZ=             -0.0000   YZ=             -0.0000

 CCSD=-300.1622484\CCSD(T)=-300.2003166\RMSD=3.903e-09\PG=CS [SG(O4)]\\
 Normal termination of Gaussian 16 at Tue Feb 13 18:40:55 2024.
