 Gaussian 16, Revision A.03,
 Gaussian 16:  ES64L-G16RevA.03 25-Dec-2016

 -----------------------------------------------
 #p ROCCSD(T,MaxCyc=200)/cc-pVTZ SCF(MaxCyc=200)
 -----------------------------------------------

 -------
 O2_O2_8
 -------
 Symbolic Z-matrix:
 Charge =  0 Multiplicity = 3

                         Standard orientation:
 ---------------------------------------------------------------------
 Center     Atomic      Atomic             Coordinates (Angstroms)
 Number     Number       Type             X           Y           Z
 ---------------------------------------------------------------------
      1          8           0       -0.870000   -0.830000    0.000000
      2          8           0        0.290000   -0.830000    0.000000
      3          8           0        0.290000    0.250000    0.000000
      4          8           0        0.290000    1.410000    0.000000
 ---------------------------------------------------------------------

 SCF Done:  E(ROHF) =  -298.776499567     A.U. after   25 cycles
 E2 =    -0.9359164948D+00 EUMP2 =    -0.29971241606190D+03
 CCSD(T)
 CCSD(T)= -0.29973955011D+03

 The electronic state is 3-A".
 Alpha  occ. eigenvalues --  -20.88157 -20.86119 -20.70067 -20.58519  -2.07551
 Alpha  occ. eigenvalues --   -1.71197  -1.42461  -1.12759  -1.07411  -0.94501
 Alpha  occ. eigenvalues --   -0.88289  -0.76725  -0.75094  -0.55714  -0.52348
 Alpha  occ. eigenvalues --   -0.45950  -0.42786
 Alpha virt. eigenvalues --    0.22234   0.39617   0.46211   0.59888   0.61241
 Alpha virt. eigenvalues --    0.64379   0.70047   0.73550   0.73593   0.80082
 Alpha virt. eigenvalues --    0.81442   0.85618   0.86574   0.90632   0.98794

 Mulliken charges and spin densities:
               1          2
     1  O   -0.442500   0.351888
     2  O    0.236827   0.337606
     3  O    0.427492   0.841764
     4  O   -0.221818   0.468742
 Sum of Mulliken charges =  -0.00000   2.00000

 Dipole moment (field-independent basis, Debye):
    X=              2.2553    Y=             -0.2691    Z=              0.0000  Tot=              2.2713
 Quadrupole moment (field-independent basis, Debye-Ang):
   XX=            -21.4897   YY=            -22.7268   ZZ=            -19.6597
   XY=             -2.0334   XZ=              0.0000   YZ=              0.0000

 Normal termination of Gaussian 16 at Tue Feb 13 12:03:57 2024.
