 Gaussian 16, Revision A.03,
 Gaussian 16:  ES64L-G16RevA.03 25-Dec-2016

 -----------------------------------------------
 #p ROCCSD(T,MaxCyc=200)/cc-pVTZ SCF(MaxCyc=200)
 -----------------------------------------------

 ---------
 O2_O2_151
 ---------
 Symbolic Z-matrix:
 Charge =  0 Multiplicity = 3

                         Standard orientation:
 ---------------------------------------------------------------------
 Center     Atomic      Atomic             Coordinates (Angstroms)
 Number     Number       Type             X           Y           Z
 ---------------------------------------------------------------------
      1          8           0        0.615183   -2.405183   -0.000000
      2          8           0       -0.205061   -1.584939   -0.000000
      3          8           0       -0.205061    1.415061    0.000000
      4          8           0       -0.205061    2.575061    0.000000
 ---------------------------------------------------------------------

 SCF Done:  E(ROHF) =  -299.252336263     A.U. after   26 cycles
 E2 =    -0.9214746522D+00 EUMP2 =    -0.30017381091551D+03
 CCSD(T)
 CCSD(T)= -0.30020058723D+03

 The electronic state is 3-A".
 Alpha  occ. eigenvalues --  -20.73944 -20.73863 -20.72901 -20.72785  -1.74450
 Alpha  occ. eigenvalues --   -1.69847  -1.17007  -1.08536  -0.83747  -0.83731
 Alpha  occ. eigenvalues --   -0.78622  -0.78147  -0.75064  -0.67376  -0.50925
 Alpha  occ. eigenvalues --   -0.50913  -0.44785
 Alpha virt. eigenvalues --    0.04977   0.38779   0.46482   0.64625   0.67125
 Alpha virt. eigenvalues --    0.68003   0.70840   0.71343   0.75131   0.77844
 Alpha virt. eigenvalues --    0.78581   0.79208   0.84335   0.86142   0.87269

 Mulliken charges and spin densities:
               1          2
     1  O   -0.000788   0.998427
     2  O    0.000920   1.001375
     3  O    0.000053   0.000100
     4  O   -0.000185   0.000097
 Sum of Mulliken charges =  -0.00000   2.00000

 Dipole moment (field-independent basis, Debye):
    X=             -0.0077    Y=              0.0035    Z=              0.0000  Tot=              0.0084
 Quadrupole moment (field-independent basis, Debye-Ang):
   XX=            -20.8166   YY=            -20.6820   ZZ=            -18.8848
   XY=              0.3114   XZ=             -0.0000   YZ=             -0.0000

 CSD=-300.162425\CCSD(T)=-300.2005872\RMSD=9.974e-09\PG=CS [SG(O4)]\\@
 Normal termination of Gaussian 16 at Tue Feb 13 16:45:30 2024.
