 Gaussian 16, Revision A.03,
 Gaussian 16:  ES64L-G16RevA.03 25-Dec-2016

 -----------------------------------------------
 #p ROCCSD(T,MaxCyc=200)/cc-pVTZ SCF(MaxCyc=200)
 -----------------------------------------------

 ---------
 O2_O2_146
 ---------
 Symbolic Z-matrix:
 Charge =  0 Multiplicity = 3

                         Standard orientation:
 ---------------------------------------------------------------------
 Center     Atomic      Atomic             Coordinates (Angstroms)
 Number     Number       Type             X           Y           Z
 ---------------------------------------------------------------------
      1          8           0       -0.870000   -1.750000    0.000000
      2          8           0        0.290000   -1.750000    0.000000
      3          8           0        0.290000    1.170000    0.000000
      4          8           0        0.290000    2.330000    0.000000
 ---------------------------------------------------------------------

 SCF Done:  E(ROHF) =  -299.252082813     A.U. after   25 cycles
 E2 =    -0.9218087744D+00 EUMP2 =    -0.30017389158730D+03
 CCSD(T)
 CCSD(T)= -0.30020067643D+03

 The electronic state is 3-A".
 Alpha  occ. eigenvalues --  -20.73883 -20.73806 -20.73038 -20.72918  -1.74393
 Alpha  occ. eigenvalues --   -1.69980  -1.16940  -1.08708  -0.83762  -0.83678
 Alpha  occ. eigenvalues --   -0.78753  -0.78048  -0.75200  -0.67508  -0.50887
 Alpha  occ. eigenvalues --   -0.50871  -0.44904
 Alpha virt. eigenvalues --    0.04830   0.40698   0.43180   0.63135   0.66290
 Alpha virt. eigenvalues --    0.68130   0.71630   0.72325   0.75143   0.77666
 Alpha virt. eigenvalues --    0.78714   0.79608   0.79611   0.85967   0.87701

 Mulliken charges and spin densities:
               1          2
     1  O    0.001172   1.000221
     2  O   -0.001168   0.999523
     3  O   -0.001719   0.000160
     4  O    0.001715   0.000096
 Sum of Mulliken charges =  -0.00000   2.00000

 Dipole moment (field-independent basis, Debye):
    X=              0.0035    Y=              0.0259    Z=              0.0000  Tot=              0.0262
 Quadrupole moment (field-independent basis, Debye-Ang):
   XX=            -21.1120   YY=            -20.3384   ZZ=            -18.8845
   XY=              0.0040   XZ=              0.0000   YZ=              0.0000

 CCSD(T)=-300.2006764\RMSD=7.848e-09\PG=CS [SG(O4)]\\@
 Normal termination of Gaussian 16 at Tue Feb 13 16:40:07 2024.
