 Gaussian 16, Revision A.03,
 Gaussian 16:  ES64L-G16RevA.03 25-Dec-2016

 -----------------------------------------------
 #p ROCCSD(T,MaxCyc=200)/cc-pVTZ SCF(MaxCyc=200)
 -----------------------------------------------

 ---------
 O2_O2_126
 ---------
 Symbolic Z-matrix:
 Charge =  0 Multiplicity = 3

                         Standard orientation:
 ---------------------------------------------------------------------
 Center     Atomic      Atomic             Coordinates (Angstroms)
 Number     Number       Type             X           Y           Z
 ---------------------------------------------------------------------
      1          8           0        0.000000    0.000000    2.500000
      2          8           0        0.000000    0.000000    1.340000
      3          8           0        0.000000    0.000000   -1.340000
      4          8           0        0.000000    0.000000   -2.500000
 ---------------------------------------------------------------------

 SCF Done:  E(ROHF) =  -299.050658554     A.U. after   13 cycles
 E2 =    -0.1143600314D+01 EUMP2 =    -0.30019425886725D+03
 CCSD(T)
 CCSD(T)= -0.30019048598D+03

 Unable to determine electronic state:  an orbital has unidentified symmetry.
 Alpha  occ. eigenvalues --  -20.76465 -20.76463 -20.74659 -20.74659  -1.73484
 Alpha  occ. eigenvalues --   -1.73374  -1.14497  -1.13098  -0.82399  -0.82143
 Alpha  occ. eigenvalues --   -0.78936  -0.76616  -0.76582  -0.75681  -0.48839
 Alpha  occ. eigenvalues --   -0.48231  -0.30493
 Alpha virt. eigenvalues --   -0.14982   0.39951   0.48479   0.65773   0.66097
 Alpha virt. eigenvalues --    0.67045   0.70375   0.70470   0.75703   0.76588
 Alpha virt. eigenvalues --    0.77650   0.80137   0.85572   0.86787   0.88278

 Mulliken charges and spin densities:
               1          2
     1  O   -0.022959   0.475611
     2  O    0.022959   0.524389
     3  O    0.022959   0.524389
     4  O   -0.022959   0.475611
 Sum of Mulliken charges =  -0.00000   2.00000

 Dipole moment (field-independent basis, Debye):
    X=             -0.0000    Y=              0.0000    Z=              0.0000  Tot=              0.0000
 Quadrupole moment (field-independent basis, Debye-Ang):
   XX=            -19.1261   YY=            -20.7346   ZZ=            -21.5400
   XY=              0.0000   XZ=              0.0000   YZ=              0.0000

 \PMP2-0=-300.1942589\MP4SDQ=-300.0604034\CCSD=-300.0750123\CCSD(T)=-30
 Normal termination of Gaussian 16 at Tue Feb 13 16:01:11 2024.
