 Gaussian 16, Revision A.03,
 Gaussian 16:  ES64L-G16RevA.03 25-Dec-2016

 -----------------------------------------------
 #p ROCCSD(T,MaxCyc=200)/cc-pVTZ SCF(MaxCyc=200)
 -----------------------------------------------

 --------
 O2_O2_55
 --------
 Symbolic Z-matrix:
 Charge =  0 Multiplicity = 3

                         Standard orientation:
 ---------------------------------------------------------------------
 Center     Atomic      Atomic             Coordinates (Angstroms)
 Number     Number       Type             X           Y           Z
 ---------------------------------------------------------------------
      1          8           0        0.615183   -1.765183    0.000000
      2          8           0       -0.205061   -0.944939    0.000000
      3          8           0       -0.205061    0.775061   -0.000000
      4          8           0       -0.205061    1.935061   -0.000000
 ---------------------------------------------------------------------

 SCF Done:  E(ROHF) =  -299.070274840     A.U. after   21 cycles
 E2 =    -0.1054603654D+01 EUMP2 =    -0.30012487849419D+03
 CCSD(T)
 CCSD(T)= -0.30015228251D+03

 The electronic state is 3-A'.
 Alpha  occ. eigenvalues --  -20.77775 -20.74385 -20.73388 -20.73030  -1.74673
 Alpha  occ. eigenvalues --   -1.72442  -1.21964  -1.08997  -0.87479  -0.84266
 Alpha  occ. eigenvalues --   -0.81174  -0.76475  -0.72128  -0.69010  -0.51631
 Alpha  occ. eigenvalues --   -0.48571  -0.34475
 Alpha virt. eigenvalues --   -0.05990   0.44389   0.48598   0.64226   0.67256
 Alpha virt. eigenvalues --    0.70503   0.71267   0.73177   0.75216   0.76448
 Alpha virt. eigenvalues --    0.79227   0.82010   0.85351   0.95544   0.95580

 Mulliken charges and spin densities:
               1          2
     1  O   -0.048475   0.517273
     2  O    0.081517   0.468258
     3  O   -0.008916   0.329201
     4  O   -0.024127   0.685269
 Sum of Mulliken charges =  -0.00000   2.00000

 Dipole moment (field-independent basis, Debye):
    X=             -0.1391    Y=             -0.0293    Z=              0.0000  Tot=              0.1421
 Quadrupole moment (field-independent basis, Debye-Ang):
   XX=            -20.1017   YY=            -21.3286   ZZ=            -20.1336
   XY=              0.6554   XZ=              0.0000   YZ=              0.0000

 \CCSD=-300.0700522\CCSD(T)=-300.1522825\RMSD=5.367e-09\PG=CS [SG(O4)]\
 Normal termination of Gaussian 16 at Tue Feb 13 13:26:15 2024.
